/*--------------------------------*- C++ -*----------------------------------*\
| =========                 |                                                 |
| \\      /  F ield         | OpenFOAM: The Open Source CFD Toolbox           |
|  \\    /   O peration     | Version:  2.4.0                                 |
|   \\  /    A nd           | Web:      www.OpenFOAM.org                      |
|    \\/     M anipulation  |                                                 |
\*---------------------------------------------------------------------------*/
FoamFile
{
    version     2.0;
    format      ascii;
    class       surfaceScalarField;
    location    "0.4";
    object      phi;
}
// * * * * * * * * * * * * * * * * * * * * * * * * * * * * * * * * * * * * * //

dimensions      [0 3 -1 0 0 0 0];

internalField   nonuniform List<scalar> 
15214
(
1.45439e-39
2.07263e-41
8.95353e-39
1.55818e-40
1.22997e-38
1.69408e-39
4.22994e-37
1.41868e-39
1.42824e-41
-3.29056e-39
-4.2286e-37
-3.28893e-39
-1.07247e-38
1.44068e-39
1.46859e-39
1.87042e-39
1.99335e-38
2.00752e-39
4.36761e-37
3.15527e-39
4.33522e-37
-1.69243e-39
-4.00152e-37
-4.70923e-39
1.05422e-38
1.41867e-39
4.24581e-37
3.11274e-39
1.24336e-38
-1.44083e-39
8.96852e-39
-1.69589e-39
1.45535e-39
-1.55982e-40
1.19684e-40
-2.03723e-41
1.32472e-41
-1.64325e-42
1.03583e-42
-1.55003e-43
9.20097e-44
-1.14231e-44
6.64775e-45
-8.99585e-46
5.08397e-46
-6.07734e-47
6.74517e-47
-3.93717e-48
5.10522e-46
3.95337e-48
6.67912e-45
6.10184e-47
9.24818e-44
9.03521e-46
1.04197e-42
1.14796e-44
1.33324e-41
1.55841e-43
1.20627e-40
1.65377e-42
1.46754e-39
2.05157e-41
9.07478e-39
1.57468e-40
1.37672e-38
1.71459e-39
4.32068e-37
1.57613e-39
1.37672e-38
-1.57613e-39
9.07478e-39
-1.71459e-39
1.46754e-39
-1.57468e-40
1.20627e-40
-2.05157e-41
1.33324e-41
-1.65377e-42
1.04197e-42
-1.55844e-43
9.247e-44
-1.15153e-44
6.61048e-45
-1.22228e-45
3.72879e-47
-3.15041e-45
-3.67653e-46
-1.70604e-44
4.87557e-46
-1.25681e-43
-1.2348e-44
2.43635e-40
-2.10797e-41
1.5379e-39
-1.95745e-40
1.43212e-38
-2.07594e-39
2.49056e-38
-1.72732e-39
2.71233e-42
4.02518e-39
-2.48802e-38
4.02328e-39
-1.40542e-38
-1.7534e-39
2.46854e-40
-2.29614e-39
1.56404e-38
-2.46973e-39
3.94733e-38
-3.85368e-39
2.67103e-38
2.07402e-39
-8.77691e-39
5.7525e-39
1.80748e-39
-1.72732e-39
2.51748e-38
-3.80324e-39
1.43465e-38
1.75358e-39
1.54078e-39
2.07803e-39
2.44351e-40
1.96039e-40
2.26203e-41
2.41832e-41
2.50496e-42
1.91084e-42
2.07448e-43
1.73027e-43
1.85579e-44
1.24786e-44
1.38696e-45
9.57558e-46
1.06999e-46
6.36255e-47
1.45209e-47
4.05509e-48
1.0746e-46
-4.07136e-48
1.39371e-45
-6.38748e-47
1.86571e-44
-9.61612e-46
2.08727e-43
-1.25379e-44
2.52212e-42
-1.7392e-43
2.2809e-41
-1.92235e-42
2.46646e-40
-2.43436e-41
1.56085e-39
-1.97775e-40
1.45678e-38
-2.10028e-39
2.64662e-38
-1.92509e-39
1.45678e-38
1.92509e-39
1.56085e-39
2.10028e-39
2.46646e-40
1.97775e-40
2.2809e-41
2.43436e-41
2.52212e-42
1.92235e-42
2.08711e-43
1.73889e-43
1.84989e-44
1.21688e-44
4.71824e-46
-2.36501e-45
-6.29484e-45
-3.25651e-44
-5.46679e-45
-1.82683e-43
6.47625e-45
-1.36466e-42
-1.33329e-43
4.10172e-41
-4.04068e-42
1.77301e-40
-3.66119e-41
1.19157e-39
-3.283e-40
1.99615e-39
-2.6328e-40
5.91323e-43
6.33265e-40
-1.99122e-39
6.32872e-40
-1.14631e-39
-2.68338e-40
4.14778e-41
-3.69632e-40
1.33291e-39
-4.01995e-40
3.22914e-39
-6.01336e-40
2.21866e-39
3.27903e-40
-5.81466e-40
8.96544e-40
2.23102e-40
-2.63279e-40
2.04189e-39
-5.91575e-40
1.19649e-39
2.68374e-40
1.77903e-40
3.28733e-40
4.09347e-41
3.66708e-41
4.32618e-42
4.66628e-42
5.43448e-43
3.95148e-43
4.78957e-44
3.64481e-44
4.53172e-45
2.7326e-45
3.50093e-46
2.12623e-46
2.78047e-47
1.44873e-47
3.84457e-48
9.32642e-49
2.79285e-47
-9.3649e-49
3.51877e-46
-1.45457e-47
4.55746e-45
-2.13555e-46
4.82179e-44
-2.74609e-45
5.47626e-43
-3.66461e-44
4.36948e-42
-3.97666e-43
4.14296e-41
-4.69997e-42
1.81677e-40
-3.7029e-41
1.233e-39
-3.32998e-40
2.17777e-39
-3.00306e-40
1.233e-39
3.00306e-40
1.81677e-40
3.32998e-40
4.14296e-41
3.7029e-41
4.36948e-42
4.69996e-42
5.47606e-43
3.9764e-43
4.80323e-44
3.63385e-44
2.77481e-45
-9.12538e-46
-1.01365e-44
-3.31077e-44
-7.39115e-44
-3.32284e-43
-6.3499e-44
-1.89297e-42
7.4137e-44
-1.44358e-41
-1.39546e-42
4.66053e-42
-9.13032e-43
1.52052e-41
-6.9262e-42
7.53549e-41
-5.87371e-41
1.21297e-40
-4.659e-41
8.00836e-44
1.13272e-40
-1.2067e-40
1.13187e-40
-7.01701e-41
-4.76354e-41
4.71163e-42
-6.66078e-41
8.6553e-41
-7.26447e-41
2.01355e-40
-1.0733e-40
1.41677e-40
5.86388e-41
-2.54811e-41
1.5986e-40
2.04603e-41
-4.65882e-41
1.26546e-40
-1.05312e-40
7.59799e-41
4.76437e-41
1.52848e-41
5.88189e-41
4.63841e-42
6.92189e-42
5.4603e-43
9.62261e-43
7.32848e-44
8.55907e-44
6.79342e-45
8.29349e-45
6.61934e-46
6.41174e-46
5.26273e-47
5.12373e-47
4.25195e-48
3.55516e-48
5.98697e-49
2.32129e-49
4.27144e-48
-2.33106e-49
5.2905e-47
-3.56985e-48
6.65864e-46
-5.14693e-47
6.84177e-45
-6.44481e-46
7.38935e-44
-8.34114e-45
5.52153e-43
-8.61801e-44
4.70479e-42
-9.69906e-43
1.57562e-41
-6.99908e-42
8.00586e-41
-5.96943e-41
1.37045e-40
-5.35867e-41
8.00586e-41
5.35867e-41
1.57562e-41
5.96943e-41
4.70479e-42
6.99908e-42
5.52135e-43
9.69889e-43
7.36845e-44
8.59472e-44
4.91571e-45
5.61168e-45
-1.80514e-44
-3.21919e-44
-1.11448e-43
-3.03008e-43
-7.9739e-43
-3.07446e-42
-6.8804e-43
-1.79441e-41
7.9069e-43
-1.39293e-40
-1.34084e-41
5.49202e-43
-9.4598e-43
1.29054e-42
-1.09341e-42
3.50393e-42
-7.26354e-42
5.04704e-42
-5.58472e-42
1.10688e-44
1.37332e-41
-4.96546e-42
1.37236e-41
-2.88343e-42
-5.71033e-42
5.59122e-43
-8.15786e-42
4.32061e-42
-8.93486e-42
9.10664e-42
-1.29724e-41
6.94974e-42
7.11793e-42
3.7048e-43
1.93033e-41
1.91437e-42
-5.56732e-42
5.67408e-42
-1.26973e-41
3.583e-42
5.71152e-42
1.29672e-42
7.1436e-42
5.49119e-43
8.96945e-43
6.97967e-44
1.30909e-43
1.00106e-44
1.21841e-44
9.61411e-46
1.21454e-45
9.64711e-47
9.65848e-47
7.82489e-48
7.85022e-48
6.42309e-49
5.54607e-49
9.15227e-50
3.6583e-50
6.45313e-49
-3.67402e-50
7.8673e-48
-5.56951e-49
9.70641e-47
-7.8868e-48
9.6859e-46
-9.71001e-47
1.00992e-44
-1.22183e-45
7.06603e-44
-1.22727e-44
5.58153e-43
-1.32025e-43
1.35632e-42
-9.07899e-43
4.0604e-42
-7.26213e-42
6.40159e-42
-6.47512e-42
4.0604e-42
6.47512e-42
1.35632e-42
7.26213e-42
5.58138e-43
9.07889e-43
7.04864e-44
1.31885e-43
8.0346e-45
1.03243e-44
-1.82578e-44
-2.18567e-44
-1.89859e-43
-2.82364e-43
-1.15052e-42
-2.65416e-42
-8.40961e-42
-2.76541e-41
-7.30026e-42
-1.66712e-40
8.24191e-42
-1.33564e-39
-1.26723e-40
3.5881e-45
-8.04987e-42
1.53848e-43
-1.98849e-42
1.15579e-43
-2.14901e-42
8.46153e-44
-8.48772e-43
2.26679e-45
1.68152e-42
-6.81197e-44
1.70263e-42
-3.54424e-44
-7.06413e-43
5.74053e-44
-1.01847e-42
1.56795e-43
-1.11734e-42
2.33702e-43
-1.60977e-42
2.45648e-43
8.84137e-43
1.91982e-43
2.39363e-42
1.69774e-43
-6.86843e-43
1.41971e-43
-1.57266e-42
1.08134e-43
7.06327e-43
1.06064e-43
8.87707e-43
5.62716e-44
1.15005e-43
7.58625e-45
1.76343e-44
1.13308e-45
1.69177e-45
1.12185e-46
1.73365e-46
1.14846e-47
1.40583e-47
9.49038e-49
1.16036e-48
7.88472e-50
8.29678e-50
1.13703e-50
5.51865e-51
7.92231e-50
-5.54266e-51
9.54303e-49
-8.33241e-50
1.15573e-47
-1.16587e-48
1.13055e-46
-1.41353e-47
1.1436e-45
-1.74441e-46
7.6868e-45
-1.70466e-45
5.72906e-44
-1.77935e-44
1.12495e-43
-1.16521e-43
1.56594e-43
-9.03621e-43
1.89489e-43
-8.0335e-43
1.56593e-43
8.0335e-43
1.12485e-43
9.03617e-43
5.71615e-44
1.1645e-43
6.15784e-45
1.68076e-44
-1.72114e-44
-1.21105e-44
-1.73064e-43
-1.65523e-43
-1.73993e-42
-2.06316e-42
-1.0778e-41
-1.98607e-41
-8.03361e-41
-2.12856e-40
-7.01902e-41
-1.34781e-39
7.74476e-41
-1.10562e-38
-1.04935e-39
-4.64562e-43
-6.90294e-41
5.18984e-43
-1.69921e-41
1.66775e-43
-1.20018e-41
6.33329e-44
-1.55866e-42
1.05873e-44
-4.60534e-44
1.73353e-44
1.58593e-43
1.00941e-44
-7.64244e-44
5.97581e-45
-1.08492e-43
1.21983e-45
-1.1911e-43
-1.21426e-44
-1.69918e-43
1.20827e-45
9.35128e-44
2.7659e-44
2.52482e-43
1.61457e-44
-7.19997e-44
-8.04131e-45
-1.65708e-43
-2.33647e-45
7.42121e-44
9.51426e-45
9.3929e-44
5.83401e-45
1.26055e-44
8.14263e-46
1.99665e-45
1.25464e-46
1.96993e-46
1.26768e-47
2.05808e-47
1.31896e-48
1.69979e-48
1.10394e-49
1.41955e-49
9.25845e-51
1.02717e-50
1.34579e-51
6.8798e-52
9.30316e-51
-6.91013e-52
1.11017e-49
-1.03165e-50
1.32749e-48
-1.42643e-49
1.27779e-47
-1.70932e-48
1.26671e-46
-2.07123e-47
8.25603e-46
-1.9855e-46
5.94657e-45
-2.01551e-45
1.02004e-44
-1.27817e-44
2.65782e-45
-9.57252e-44
-4.61333e-45
-8.47798e-44
2.65228e-45
8.47778e-44
1.01229e-44
9.56955e-44
4.87103e-45
1.2315e-44
-1.20602e-44
-4.56724e-45
-1.57247e-43
-9.36555e-44
-1.51104e-42
-1.14514e-42
-1.55857e-41
-1.46677e-41
-9.93969e-41
-1.45841e-40
-7.66946e-40
-1.64136e-39
-6.75781e-40
-1.10966e-38
7.27925e-40
-9.61673e-38
-8.90266e-39
-3.13332e-42
-5.95835e-40
5.63899e-42
-1.36976e-40
1.68464e-42
-9.50239e-41
7.34777e-43
-1.15755e-41
9.63026e-44
-1.67681e-42
1.66191e-44
-1.39603e-43
2.86507e-45
-2.36929e-44
7.0976e-46
-1.26461e-44
-4.44983e-46
-1.2621e-44
-2.51027e-45
-1.77658e-44
-7.93475e-46
9.78059e-45
2.89634e-45
2.6374e-44
1.47054e-45
-7.49285e-45
-1.60723e-45
-1.72958e-44
-7.3168e-46
7.73622e-45
8.40052e-46
9.82772e-45
5.52832e-46
1.3469e-45
7.93742e-47
2.19209e-46
1.24854e-47
2.20438e-47
1.28467e-48
2.33983e-48
1.35286e-49
1.95732e-49
1.14591e-50
1.64983e-50
9.68353e-52
1.20351e-51
1.41854e-52
8.10174e-53
9.73086e-52
-8.13775e-53
1.15247e-50
-1.20881e-51
1.36177e-49
-1.65792e-50
1.29515e-48
-1.96849e-49
1.26091e-47
-2.35511e-48
8.05216e-47
-2.22228e-47
5.64009e-46
-2.21351e-46
9.0666e-46
-1.36658e-45
-2.60955e-46
-1.00245e-44
-1.34754e-45
-8.85973e-45
-2.98833e-46
8.85054e-45
3.72202e-46
9.8865e-45
-6.92642e-45
-8.14931e-46
-9.07803e-44
-3.08789e-44
-1.12811e-42
-4.49939e-43
-1.10775e-41
-5.60644e-42
-1.17254e-40
-7.39433e-41
-7.78997e-40
-7.74342e-40
-6.18206e-39
-9.2584e-39
-5.49522e-39
-7.0595e-38
5.70901e-39
-6.31463e-37
-5.92725e-38
1.981e-42
-4.2287e-39
6.39801e-41
-1.08909e-39
1.72357e-41
-8.0596e-40
7.01645e-42
-9.33557e-41
8.82469e-43
-1.31505e-41
1.27761e-43
-1.18031e-42
1.24337e-44
-1.16815e-43
1.29314e-45
-1.01429e-44
3.70137e-47
-1.92717e-45
-2.75562e-46
-1.73894e-45
-1.06805e-46
9.27366e-46
2.79072e-46
2.5055e-45
1.34393e-46
-7.08905e-46
-1.80498e-46
-1.64203e-45
-8.70152e-47
7.33081e-46
7.56356e-47
9.35646e-46
5.14083e-47
1.31118e-46
7.51418e-48
2.17483e-47
1.20041e-48
2.2259e-48
1.25094e-49
2.39064e-49
1.32959e-50
2.02371e-50
1.13573e-51
1.71828e-51
9.65108e-53
1.26319e-52
1.42126e-53
8.53924e-54
9.69863e-53
-8.5775e-54
1.14231e-51
-1.26881e-52
1.33847e-50
-1.72682e-51
1.26132e-49
-2.03542e-50
1.21254e-48
-2.40655e-49
7.6256e-48
-2.24441e-48
5.24779e-47
-2.19672e-47
8.18637e-47
-1.33108e-46
-4.43799e-47
-9.55256e-46
-1.74684e-46
-8.44231e-46
-2.9458e-46
8.02747e-46
-3.48838e-45
3.25067e-46
-5.08804e-44
-1.00044e-44
-6.28521e-43
-1.467e-43
-8.02016e-42
-2.18231e-42
-8.0995e-41
-2.79408e-41
-8.95336e-40
-3.88952e-40
-6.2377e-39
-4.36741e-39
-5.27031e-38
-5.8391e-38
-4.73561e-38
-5.17541e-37
4.77277e-38
-5.19786e-36
-4.58014e-37
5.27853e-40
-3.27238e-38
8.25122e-40
-6.72045e-39
1.67008e-40
-4.64607e-39
5.5972e-41
-5.17061e-40
6.69145e-42
-6.7942e-41
9.25531e-43
-5.88725e-42
8.69148e-44
-5.57409e-43
8.60863e-45
-4.26574e-44
6.84204e-46
-3.49082e-45
2.99299e-47
-4.10062e-46
-6.33867e-48
8.21549e-47
2.47051e-47
2.63148e-46
1.15788e-47
-7.45892e-47
-1.65511e-47
-1.73021e-46
-8.12217e-48
7.71572e-47
6.45719e-48
9.87675e-47
4.45649e-48
1.40433e-47
6.62276e-49
2.36282e-48
1.06995e-49
2.44758e-49
1.12823e-50
2.65154e-50
1.20784e-51
2.26285e-51
1.03996e-52
1.93113e-52
8.8776e-54
1.42691e-53
1.31399e-54
9.67126e-55
8.92144e-54
-9.71482e-55
1.04599e-52
-1.4333e-53
1.21591e-51
-1.94081e-52
1.13752e-50
-2.27611e-51
1.08055e-49
-2.66948e-50
6.71534e-49
-2.4684e-49
4.53722e-48
-2.38733e-48
6.75189e-48
-1.42666e-47
-8.78324e-48
-1.00984e-46
-8.56037e-47
-9.06003e-47
-1.126e-45
5.69681e-47
-1.61161e-44
-4.13999e-46
-2.33351e-43
-8.39327e-45
-2.93874e-42
-1.23895e-43
-3.84234e-41
-1.92692e-42
-4.03086e-40
-2.72225e-41
-4.63536e-39
-4.59923e-40
-3.46669e-38
-7.49851e-39
-3.05909e-37
-1.41076e-37
-2.77113e-37
-2.03542e-36
2.59575e-37
-2.11748e-35
-1.97855e-36
-1.15494e-39
-1.63462e-41
-7.30997e-39
-1.27976e-40
-1.01629e-38
-1.54025e-39
-3.84353e-37
-1.31313e-39
1.79339e-47
2.99873e-39
3.84353e-37
2.99873e-39
1.01629e-38
-1.31313e-39
7.31036e-39
-1.54025e-39
1.15427e-39
-1.27979e-40
8.70001e-41
-1.60598e-41
9.26219e-42
-1.19167e-42
6.13061e-43
-1.08023e-43
-6.13079e-43
-1.47007e-44
-9.26247e-42
-1.08026e-43
-8.70039e-41
-1.19171e-42
-1.15433e-39
-1.60604e-41
-7.31104e-39
-1.27986e-40
-1.01722e-38
-1.54036e-39
-3.84441e-37
-1.31433e-39
-1.16359e-39
2.98256e-39
3.76955e-37
2.86955e-39
-1.16359e-39
-2.86955e-39
-3.84441e-37
-2.98256e-39
-1.01722e-38
1.31433e-39
-7.31104e-39
1.54036e-39
-1.15433e-39
1.27986e-40
-8.70613e-41
1.60598e-41
-9.93977e-42
1.18429e-42
-9.98924e-42
-5.16053e-46
-8.76738e-41
-1.19112e-42
-1.16292e-39
-1.61599e-41
-7.38871e-39
-1.2907e-40
-1.12388e-38
-1.55522e-39
-3.90587e-37
-1.42614e-39
-3.92848e-39
1.57149e-39
3.92843e-39
3.11284e-39
3.90587e-37
1.57148e-39
1.123e-38
-1.42624e-39
7.33629e-39
-1.55601e-39
-1.37579e-40
-1.92746e-40
1.67387e-41
-1.25825e-39
1.60792e-40
-1.2909e-38
1.88768e-39
-2.27423e-38
1.60012e-39
1.14795e-47
-3.66918e-39
2.27423e-38
-3.66918e-39
1.2909e-38
1.60012e-39
1.25834e-39
1.88768e-39
1.92982e-40
1.60869e-40
1.64305e-41
1.90007e-41
1.74401e-42
1.38242e-42
1.22523e-43
1.2016e-43
-1.22527e-43
1.60219e-44
-1.74407e-42
1.20162e-43
-1.64313e-41
1.38246e-42
-1.92994e-40
1.90013e-41
-1.25848e-39
1.60877e-40
-1.29107e-38
1.8878e-39
-2.27589e-38
1.60151e-39
-1.94739e-40
-3.65006e-39
2.14674e-38
-3.50692e-39
-1.94739e-40
3.50692e-39
-2.27589e-38
3.65006e-39
-1.29107e-38
-1.60151e-39
-1.25848e-39
-1.8878e-39
-1.92995e-40
-1.60877e-40
-1.64428e-41
-1.90007e-41
-1.87955e-42
-1.37438e-42
-1.88944e-42
5.48545e-46
-1.65652e-41
1.38184e-42
-1.94605e-40
1.91123e-41
-1.27315e-39
1.62139e-40
-1.30871e-38
1.90541e-39
-2.38225e-38
1.74326e-39
-1.18288e-38
-1.92464e-39
1.18288e-38
-3.81359e-39
2.38224e-38
-1.92463e-39
1.30853e-38
1.74333e-39
1.26065e-39
1.90482e-39
1.28762e-40
-3.27646e-41
3.19866e-42
-1.45639e-40
3.01347e-41
-1.07802e-39
2.99257e-40
-1.836e-39
2.45489e-40
-2.46806e-48
-5.78869e-40
1.836e-39
-5.78869e-40
1.07802e-39
2.45489e-40
1.45643e-40
2.99257e-40
3.26484e-41
3.01498e-41
3.15967e-42
3.66036e-42
3.80543e-43
2.85818e-43
2.82372e-44
2.52592e-44
-2.82383e-44
3.50472e-45
-3.80558e-43
2.52598e-44
-3.15987e-42
2.85826e-43
-3.26512e-41
3.66049e-42
-1.45674e-40
3.01516e-41
-1.07841e-39
2.99282e-40
-1.83919e-39
2.45777e-40
-3.30319e-41
-5.75183e-40
1.68717e-39
-5.48432e-40
-3.30319e-41
5.48432e-40
-1.83919e-39
5.75183e-40
-1.07841e-39
-2.45777e-40
-1.45674e-40
-2.99282e-40
-3.26514e-41
-3.01516e-41
-3.1627e-42
-3.66036e-42
-4.11983e-43
-2.84058e-43
-4.14394e-43
1.21288e-46
-3.1909e-42
2.85688e-43
-3.30009e-41
3.68373e-42
-1.4845e-40
3.04121e-41
-1.10786e-39
3.02655e-40
-1.9518e-39
2.72241e-40
-9.62221e-40
-3.06364e-40
9.6222e-40
-6.05885e-40
1.9518e-39
-3.06363e-40
1.10776e-39
2.72254e-40
1.47803e-40
3.02539e-40
2.4067e-41
-3.74614e-42
6.59761e-43
-1.25437e-41
5.69139e-42
-6.85548e-41
5.35953e-41
-1.12648e-40
4.35479e-41
-6.65408e-49
-1.03665e-40
1.12648e-40
-1.03665e-40
6.85546e-41
4.35479e-41
1.25433e-41
5.35953e-41
3.72227e-42
5.69586e-42
4.00221e-43
7.5744e-43
5.14178e-44
6.20661e-44
3.99977e-45
5.7654e-45
-3.99993e-45
8.23963e-46
-5.14202e-44
5.76553e-45
-4.00252e-43
6.20682e-44
-3.72268e-42
7.57471e-43
-1.25477e-41
5.69628e-42
-6.86065e-41
5.36011e-41
-1.13053e-40
4.36104e-41
-3.77413e-42
-1.02902e-40
9.97003e-41
-9.79065e-41
-3.77413e-42
9.79065e-41
-1.13053e-40
1.02902e-40
-6.86065e-41
-4.36104e-41
-1.25477e-41
-5.36011e-41
-3.72271e-42
-5.69628e-42
-4.00665e-43
-7.5744e-43
-5.58873e-44
-6.16523e-44
-5.6238e-44
2.92436e-47
-4.04661e-43
6.20347e-44
-3.76972e-42
7.6276e-43
-1.28961e-41
5.75257e-42
-7.19241e-41
5.4296e-41
-1.21822e-40
4.85431e-41
-5.93808e-41
-5.50646e-41
5.93808e-41
-1.08717e-40
1.21822e-40
-5.50645e-41
7.19277e-41
4.85438e-41
1.29204e-41
5.42587e-41
4.48314e-42
-4.48232e-43
8.93303e-44
-1.06746e-42
7.38097e-43
-3.24702e-42
6.51605e-42
-4.84764e-42
5.22051e-42
-1.67211e-49
-1.25883e-41
4.84764e-42
-1.25883e-41
3.24698e-42
5.22051e-42
1.06722e-42
6.51607e-42
4.43381e-43
7.38825e-43
5.13119e-44
1.03171e-43
7.04305e-45
8.84657e-45
5.65343e-46
8.44954e-46
-5.65368e-46
1.24191e-46
-7.0434e-45
8.44975e-46
-5.13165e-44
8.84688e-45
-4.43441e-43
1.03176e-43
-1.06784e-42
7.38887e-43
-3.25409e-42
6.51692e-42
-4.89958e-42
5.22942e-42
-4.50489e-43
-1.24843e-41
3.72848e-42
-1.18406e-41
-4.50489e-43
1.18406e-41
-4.89958e-42
1.24843e-41
-3.25409e-42
-5.22942e-42
-1.06784e-42
-6.51692e-42
-4.43446e-43
-7.38887e-43
-5.13769e-44
-1.03171e-43
-7.67714e-45
-8.78418e-45
-7.72816e-45
4.47408e-48
-5.19415e-44
8.84175e-45
-4.49864e-43
1.03949e-43
-1.11205e-42
7.46888e-43
-3.64553e-42
6.61118e-42
-5.51631e-42
5.86423e-42
-2.57832e-42
-6.71598e-42
2.57833e-42
-1.32402e-41
5.51655e-42
-6.71598e-42
3.6487e-42
5.86417e-42
1.13116e-42
6.60489e-42
5.74795e-43
-4.62394e-44
1.21276e-44
-8.75654e-44
9.45965e-44
-9.94375e-44
8.10205e-43
-9.50652e-44
6.45129e-43
-2.25696e-50
-1.56542e-42
9.50649e-44
-1.56542e-42
9.94323e-44
6.45131e-43
8.75238e-44
8.10217e-43
4.55938e-44
9.47853e-44
5.58742e-45
1.39241e-44
7.98197e-46
1.2301e-45
6.58981e-47
1.208e-46
-6.59012e-47
1.80947e-47
-7.9824e-46
1.20803e-46
-5.58797e-45
1.23015e-45
-4.5601e-44
1.39248e-44
-8.75974e-44
9.47944e-44
-1.00238e-43
8.10337e-43
-1.00726e-43
6.4637e-43
-4.63997e-44
-1.55137e-42
1.88006e-45
-1.46939e-42
-4.63997e-44
1.46939e-42
-1.00726e-43
1.55137e-42
-1.00238e-43
-6.4637e-43
-8.75974e-44
-8.10337e-43
-4.56015e-44
-9.47944e-44
-5.59516e-45
-1.39241e-44
-8.72303e-46
-1.22101e-45
-8.78361e-46
6.61259e-49
-5.66098e-45
1.22939e-45
-4.63267e-44
1.40351e-44
-9.2379e-44
9.59036e-44
-1.40171e-43
8.23022e-43
-1.4185e-43
7.2711e-43
-5.2647e-44
-8.3718e-43
5.26497e-44
-1.64852e-42
1.41893e-43
-8.37181e-43
1.407e-43
7.27073e-43
9.54588e-44
8.21988e-43
7.27931e-44
-4.77708e-45
4.38234e-45
-7.87526e-45
9.46131e-45
1.90477e-45
8.56915e-44
1.09782e-44
6.77486e-44
3.25013e-50
-1.65675e-43
-1.0978e-44
-1.65674e-43
-1.90226e-45
6.77572e-44
7.86569e-45
8.57842e-44
4.7365e-45
1.03959e-44
6.00366e-46
1.57808e-45
8.84823e-47
1.43365e-46
7.43964e-48
1.43504e-47
-7.44001e-48
2.18889e-48
-8.84874e-47
1.43508e-47
-6.0043e-46
1.43371e-46
-4.73732e-45
1.57817e-45
-7.87401e-45
1.0397e-44
1.81289e-45
8.57986e-44
1.03693e-44
6.79017e-44
-4.82587e-45
-1.64082e-43
-1.94523e-44
-1.55134e-43
-4.82587e-45
1.55134e-43
1.03693e-44
1.64082e-43
1.81289e-45
-6.79017e-44
-7.87401e-45
-8.57986e-44
-4.73738e-45
-1.0397e-44
-6.01257e-46
-1.57808e-45
-9.68668e-47
-1.42265e-46
-9.75615e-47
8.08298e-50
-6.08687e-46
1.43278e-46
-4.81761e-45
1.59125e-45
-8.38502e-45
1.0526e-44
-2.31491e-45
8.72322e-44
7.32945e-45
7.67052e-44
5.5508e-45
-8.8838e-44
-5.55034e-45
-1.74753e-43
-7.32327e-45
-8.88383e-44
2.38904e-45
7.66986e-44
8.80758e-45
8.70993e-44
7.91094e-45
7.22769e-46
2.20812e-45
-6.12946e-46
-8.15914e-45
6.84846e-46
8.08095e-45
1.82144e-45
6.98968e-45
3.93994e-49
-1.73461e-44
-1.8173e-45
-1.73418e-44
-6.41699e-46
7.0598e-45
6.9531e-46
8.97925e-45
4.49294e-46
1.11126e-45
5.85648e-47
1.73422e-46
8.81e-48
1.60551e-47
7.53354e-49
1.63277e-48
-7.53393e-49
2.52184e-49
-8.81053e-48
1.63281e-48
-5.85715e-47
1.60558e-47
-4.49378e-46
1.73432e-46
-6.96154e-46
1.11139e-45
6.328e-46
8.98089e-45
1.75792e-45
7.07599e-45
-4.58195e-46
-1.71665e-44
-2.57205e-45
-1.62141e-44
-4.58195e-46
1.62141e-44
1.75792e-45
1.71665e-44
6.328e-46
-7.07599e-45
-6.96154e-46
-8.98089e-45
-4.49385e-46
-1.11139e-45
-5.86563e-47
-1.73422e-46
-9.66044e-48
-1.59284e-47
-9.73156e-48
9.39116e-51
-5.94087e-47
1.6045e-47
-4.57358e-46
1.74918e-46
-7.45819e-46
1.12581e-45
2.42916e-46
9.13813e-45
1.5208e-45
8.0122e-45
9.38229e-46
-9.3147e-45
-9.38171e-46
-1.83086e-44
-1.52008e-45
-9.31476e-45
-2.34541e-46
8.01122e-45
7.92817e-46
9.12193e-45
8.38715e-46
3.6141e-44
5.41331e-43
1.81617e-45
-1.01297e-43
6.87945e-46
-8.91558e-45
2.49352e-46
3.42958e-47
4.42984e-48
-1.69003e-45
-1.97368e-46
-1.6534e-45
-7.68827e-47
6.68668e-46
6.2641e-47
8.55217e-46
4.18025e-47
1.08225e-46
5.54657e-48
1.72148e-47
8.47416e-49
1.62205e-48
7.33134e-50
1.66883e-49
-7.33173e-50
2.60806e-50
-8.47469e-49
1.66887e-49
-5.54723e-48
1.62212e-48
-4.18108e-47
1.72159e-47
-6.2722e-47
1.08239e-46
7.6046e-47
8.5539e-46
1.92041e-46
6.7042e-46
-4.26588e-47
-1.63387e-45
-2.65938e-46
-1.54139e-45
-4.26588e-47
1.54139e-45
1.92041e-46
1.63387e-45
7.6046e-47
-6.7042e-46
-6.27221e-47
-8.5539e-46
-4.18114e-47
-1.08239e-46
-5.55557e-48
-1.72148e-47
-9.30285e-49
-1.60894e-48
-9.37266e-49
9.77461e-52
-5.62878e-48
1.621e-48
-4.25773e-47
1.73676e-47
-6.74124e-47
1.09694e-46
3.98724e-47
8.7097e-46
1.7206e-46
7.61264e-46
1.02513e-46
-8.88507e-46
-1.02506e-46
-1.74521e-45
-1.71982e-46
-8.88514e-46
-3.89881e-47
7.61146e-46
7.23311e-47
8.69235e-46
8.12166e-47
9.56072e-43
-2.06733e-42
7.83348e-44
-1.84448e-43
7.29787e-45
-1.34721e-44
5.35054e-46
-7.54742e-46
3.58553e-47
-2.24595e-46
-1.57354e-47
-1.77128e-46
-7.06596e-48
7.02162e-47
5.35763e-48
9.02957e-47
3.62539e-48
1.15945e-47
4.89051e-49
1.87109e-48
7.55494e-50
1.78431e-49
6.60895e-51
1.85153e-50
-6.60926e-51
2.91688e-51
-7.55531e-50
1.85159e-50
-4.8909e-49
1.7844e-49
-3.62573e-48
1.87123e-48
-5.3574e-48
1.15964e-47
7.12447e-48
9.03222e-47
1.74928e-47
7.05505e-47
-3.70134e-48
-1.72449e-46
-2.38356e-47
-1.62564e-46
-3.70134e-48
1.62564e-46
1.74928e-47
1.72449e-46
7.12447e-48
-7.05505e-47
-5.3574e-48
-9.03222e-47
-3.62579e-48
-1.15964e-47
-4.89848e-49
-1.87111e-48
-8.30262e-50
-1.76965e-49
-8.36595e-50
1.09811e-52
-4.96448e-49
1.78313e-49
-3.69398e-48
1.88805e-48
-5.77007e-48
1.17563e-47
3.99594e-48
9.20134e-47
1.58441e-47
8.02558e-47
9.34597e-48
-9.39202e-47
-9.34529e-48
-1.84387e-46
-1.58366e-47
-9.39212e-47
-3.91223e-48
8.0241e-47
6.23262e-48
9.18131e-47
8.66254e-48
2.12955e-38
-2.64092e-37
1.80834e-38
-7.5912e-38
3.04474e-39
-6.06048e-38
8.55957e-40
-5.93742e-39
9.44764e-41
-7.50454e-40
1.24819e-41
-6.12149e-41
1.1246e-42
-5.65802e-42
1.08795e-43
-4.17208e-43
8.51445e-45
-3.2478e-44
6.7877e-46
-2.20069e-45
4.66416e-47
-1.45023e-46
5.54007e-48
4.76769e-48
1.25471e-48
-4.54463e-48
-1.5181e-48
-9.26409e-48
-7.55976e-49
4.1109e-48
5.81031e-49
5.27949e-48
4.03849e-49
7.62571e-49
6.05908e-50
1.30887e-49
9.85593e-51
1.37614e-50
1.04624e-51
1.51109e-51
1.12428e-52
1.30436e-52
9.7186e-54
1.12343e-53
8.30974e-55
8.36992e-55
1.23145e-55
5.70638e-56
8.33331e-55
-5.7312e-56
9.73695e-54
-8.4053e-55
1.12373e-52
-1.12858e-53
1.0384e-51
-1.31093e-52
9.6247e-51
-1.51896e-51
5.51628e-50
-1.38295e-50
2.93699e-49
-1.31256e-49
-1.46881e-48
-7.55655e-49
-3.70274e-47
-5.04142e-48
-5.94268e-46
1.4891e-48
-9.58133e-45
1.12195e-46
-1.40136e-43
1.7293e-45
-2.08755e-42
2.7268e-44
-2.69339e-41
3.81846e-43
-3.6791e-40
4.96548e-42
-4.00288e-39
3.55278e-41
-4.95261e-38
-4.85567e-40
-3.93194e-37
-3.72152e-38
-4.02869e-36
-1.13731e-36
-3.66953e-36
-2.50051e-35
3.70156e-36
-1.22481e-35
-2.50868e-35
3.9397e-36
6.07181e-37
-3.57061e-37
4.12458e-37
-2.82766e-37
4.68608e-38
-6.60799e-38
8.14158e-39
-5.78443e-39
7.85654e-40
-6.91842e-40
9.09918e-41
-5.548e-41
7.73881e-42
-5.10051e-42
7.09732e-43
-3.74679e-43
5.39687e-44
-2.91318e-44
4.20697e-45
-1.96274e-45
2.89493e-46
-1.34186e-46
2.00287e-47
-7.55029e-48
1.30511e-48
-7.38946e-49
2.27184e-51
-5.48905e-49
-3.2967e-50
2.29404e-49
2.87226e-50
2.97274e-49
1.98896e-50
4.334e-50
3.01823e-51
7.4594e-51
4.9627e-52
7.88646e-52
5.31914e-53
8.66457e-53
5.75936e-54
7.49822e-54
5.01375e-55
6.45231e-55
4.30876e-56
4.80919e-56
6.44473e-57
3.27313e-57
4.38607e-56
-3.27836e-57
5.16374e-55
-4.80981e-56
6.05163e-54
-6.43796e-55
5.87645e-53
-7.44107e-54
6.0244e-52
-8.50969e-53
4.97369e-51
-7.51924e-52
5.55247e-50
-6.67441e-51
6.47862e-49
-2.76536e-50
1.05527e-47
2.57301e-52
1.69818e-46
5.08043e-48
2.68706e-45
9.26352e-47
3.89987e-44
1.4853e-45
5.64633e-43
2.35595e-44
7.23097e-42
3.31978e-43
9.49023e-41
4.38789e-42
1.02588e-39
3.43782e-41
1.19513e-38
-2.95786e-40
9.48108e-38
-2.86134e-38
8.73765e-37
-9.00374e-37
1.13974e-36
-2.0241e-35
-5.34059e-38
-1.41241e-33
-2.03227e-35
-4.33992e-37
2.30235e-35
-1.17912e-35
7.39745e-37
-3.76619e-37
5.60753e-37
3.44181e-38
9.50244e-38
4.63496e-39
8.27154e-39
6.64123e-40
9.40055e-40
5.52972e-41
7.6001e-41
5.14658e-42
6.8681e-42
3.78904e-43
5.06865e-43
2.94527e-44
3.90552e-44
1.9825e-45
2.6352e-45
1.35776e-46
1.796e-46
8.45729e-48
1.11484e-47
5.09226e-49
6.83055e-49
3.80899e-51
3.7555e-50
1.32933e-50
3.67825e-51
1.5054e-50
1.13189e-51
2.2105e-51
1.60927e-52
3.83131e-52
2.5801e-53
4.08492e-53
2.75766e-54
4.51268e-54
2.97797e-55
3.92878e-55
2.59398e-56
3.39257e-56
2.23548e-57
2.53838e-57
5.43599e-58
1.72588e-58
6.97068e-57
-1.84757e-58
1.28425e-55
-2.79994e-57
2.45702e-54
-3.96879e-56
4.66158e-53
-5.16051e-55
8.94774e-52
-7.09371e-54
1.66585e-50
-9.29923e-53
3.07016e-49
-1.4149e-51
5.38997e-48
-2.17398e-50
9.29674e-47
-3.77505e-49
1.50291e-45
-6.37845e-48
2.39741e-44
-1.10023e-46
3.50641e-43
-1.76773e-45
5.13514e-42
-2.80238e-44
6.64423e-41
-3.91713e-43
8.86583e-40
-5.04658e-42
9.72918e-39
-3.27259e-41
1.16455e-37
6.59688e-40
9.4999e-37
4.39556e-38
9.27265e-36
1.32911e-36
8.7666e-36
2.92701e-35
1.6274e-35
1.58264e-33
2.93414e-35
-7.64787e-36
6.65471e-37
-2.62818e-37
3.46991e-37
-1.77175e-37
4.09192e-38
4.76172e-38
7.31397e-39
5.42217e-39
7.20359e-40
7.32305e-40
8.47389e-41
6.05955e-41
7.28487e-42
5.63019e-42
6.73758e-43
4.15695e-43
5.15586e-44
3.23678e-44
4.04007e-45
2.1845e-45
2.79197e-46
1.49826e-46
1.92754e-47
9.30992e-48
1.21691e-48
5.75615e-49
7.55871e-50
3.18226e-50
4.31943e-51
2.47199e-51
3.19565e-52
8.64552e-52
6.13728e-53
1.1865e-52
8.07701e-54
1.99613e-53
1.25428e-54
2.12184e-54
1.33595e-55
2.33567e-55
1.44018e-56
2.03442e-56
1.25693e-57
1.75365e-57
1.08137e-58
1.31164e-58
2.09282e-59
8.502e-60
2.12242e-58
-1.89585e-59
3.43821e-57
-3.60441e-58
5.82742e-56
-6.86959e-57
9.93558e-55
-1.308e-55
1.73407e-53
-2.56152e-54
3.01661e-52
-4.93661e-53
5.11173e-51
-9.56483e-52
8.53972e-50
-1.78742e-50
1.32716e-48
-3.3034e-49
2.04106e-47
-5.7909e-48
2.78364e-46
-9.9973e-47
3.84509e-45
-1.60572e-45
4.29358e-44
-2.53902e-44
5.20121e-43
-3.53545e-43
3.71506e-42
-4.47307e-42
3.80357e-41
-2.55439e-41
-1.79935e-40
7.50706e-40
-9.09008e-40
4.44271e-38
-9.66529e-38
1.3166e-36
2.53725e-37
2.85134e-35
8.32195e-37
1.8389e-35
2.85936e-35
5.18938e-37
5.40113e-38
-2.11418e-37
-1.84978e-38
-1.67108e-38
-3.35654e-40
3.20529e-39
3.82058e-40
4.58642e-40
5.67345e-41
6.64405e-41
8.85608e-42
5.92463e-42
8.60034e-43
5.68782e-43
8.77974e-44
4.37653e-44
7.10453e-45
3.48021e-45
5.83401e-46
2.41163e-46
4.15502e-47
1.67901e-47
2.94218e-48
1.06239e-48
1.88994e-49
6.64791e-50
1.19306e-50
3.81514e-51
6.97651e-52
2.49832e-52
4.35636e-53
4.80874e-53
4.44681e-54
6.03503e-54
4.64973e-55
9.73868e-55
6.36018e-56
1.03002e-55
6.5511e-57
1.13036e-56
6.93261e-58
9.86195e-58
5.99822e-59
8.50064e-59
1.25051e-60
6.38361e-60
-8.8576e-59
8.26825e-61
-2.00091e-57
8.88448e-60
-4.34682e-56
2.07489e-58
-9.22463e-55
4.71128e-57
-1.88166e-53
1.02903e-55
-3.75555e-52
2.18886e-54
-7.15364e-51
4.4655e-53
-1.33733e-49
8.90692e-52
-2.36075e-48
1.69251e-50
-4.1136e-47
3.15862e-49
-6.65897e-46
5.55345e-48
-1.07562e-44
9.65802e-47
-1.57258e-43
1.555e-45
-2.34153e-42
2.51037e-44
-3.01952e-41
3.65841e-43
-4.12254e-40
5.52536e-42
-4.4824e-39
7.39338e-41
-5.54314e-38
1.12616e-39
-4.39717e-37
1.56267e-38
-4.50412e-36
2.60016e-37
-4.10322e-36
3.32283e-36
4.14182e-36
3.4202e-35
3.32938e-36
4.43707e-36
3.03335e-39
-3.32763e-38
-2.20284e-39
-2.61771e-39
-1.5326e-40
1.60527e-40
1.11973e-41
3.65521e-41
2.99096e-42
6.81602e-42
5.72507e-43
6.72166e-43
6.08541e-44
7.06323e-44
6.55204e-45
5.72069e-45
5.52433e-46
4.75422e-46
4.65562e-47
3.38942e-47
3.39673e-48
2.41689e-48
2.44368e-49
1.55477e-49
1.59477e-50
9.86631e-51
1.01803e-51
5.78086e-52
6.03498e-53
3.48297e-53
3.65032e-54
3.52133e-54
2.92345e-55
3.5229e-55
2.58385e-56
4.94359e-56
3.10589e-57
5.05074e-57
3.07177e-58
5.43317e-58
3.17781e-59
4.71184e-59
2.75935e-60
4.04102e-60
7.58833e-61
3.35509e-61
1.20957e-59
8.33294e-61
2.69912e-58
1.92121e-59
5.8314e-57
4.40969e-58
1.22918e-55
9.88868e-57
2.49252e-54
2.14182e-55
4.93305e-53
4.53485e-54
9.32693e-52
9.22473e-53
1.72391e-50
1.83727e-51
3.01299e-49
3.48874e-50
5.16741e-48
6.50803e-49
8.25035e-47
1.14433e-47
1.30264e-45
1.98974e-46
1.86732e-44
3.20479e-45
2.68755e-43
5.17177e-44
3.36443e-42
7.53421e-43
4.35457e-41
1.13402e-41
4.51346e-40
1.50275e-40
5.10255e-39
2.23815e-39
3.73092e-38
2.96349e-38
3.221e-37
4.72458e-37
2.89881e-37
5.71263e-36
-2.88583e-37
5.86955e-35
5.70961e-36
-3.15958e-37
2.91631e-40
-2.38634e-39
-2.96222e-40
-2.13624e-40
-2.51416e-41
2.32544e-42
-1.06467e-42
1.89672e-42
8.87625e-44
4.4136e-43
3.50428e-44
4.76107e-44
4.3858e-45
5.29177e-45
5.2254e-46
4.47322e-46
4.6544e-47
3.82143e-47
4.08929e-48
2.79369e-48
3.06685e-49
2.0254e-49
2.25486e-50
1.32431e-50
1.49469e-51
8.49806e-52
9.6616e-53
5.0476e-53
5.7886e-54
3.00055e-54
3.44516e-55
2.36784e-55
2.30264e-56
2.00395e-56
1.68403e-57
2.43153e-57
1.64654e-58
2.37737e-58
1.49294e-59
2.49259e-59
1.47857e-60
2.14466e-60
4.51958e-61
1.83083e-61
7.78285e-60
2.1342e-62
1.78444e-58
1.87778e-61
4.00112e-57
4.42598e-60
8.67096e-56
1.01676e-58
1.83576e-54
2.28297e-57
3.73754e-53
4.9507e-56
7.44212e-52
1.05001e-54
1.41491e-50
2.13918e-53
2.63772e-49
4.26992e-52
4.64612e-48
8.12341e-51
8.06674e-47
1.51988e-49
1.30231e-45
2.68066e-48
2.09348e-44
4.69288e-47
3.05025e-43
7.67448e-46
4.51139e-42
1.29819e-44
5.79127e-41
2.18498e-43
7.82978e-40
4.61346e-42
8.45927e-39
1.17471e-40
1.03025e-37
3.58325e-39
8.09559e-37
1.03872e-37
8.06622e-36
2.63152e-36
7.35294e-36
5.18766e-35
-7.34834e-36
1.18217e-34
5.18156e-35
-7.91637e-36
1.92697e-41
-2.4897e-40
-2.08322e-41
-2.25463e-41
-1.97403e-42
-1.10393e-42
-1.41408e-43
4.28542e-44
-1.03655e-45
2.65484e-44
1.64246e-45
3.36149e-45
2.45924e-46
4.13999e-46
3.19056e-47
3.69343e-47
2.98374e-48
3.28894e-48
2.7057e-49
2.47066e-49
2.08003e-50
1.83017e-50
1.55566e-51
1.21532e-51
1.04685e-52
7.89459e-53
6.83962e-54