/*--------------------------------*- C++ -*----------------------------------*\
| =========                 |                                                 |
| \\      /  F ield         | OpenFOAM: The Open Source CFD Toolbox           |
|  \\    /   O peration     | Version:  2.4.0                                 |
|   \\  /    A nd           | Web:      www.OpenFOAM.org                      |
|    \\/     M anipulation  |                                                 |
\*---------------------------------------------------------------------------*/
FoamFile
{
    version     2.0;
    format      ascii;
    class       volVectorField;
    location    "0.4";
    object      U;
}
// * * * * * * * * * * * * * * * * * * * * * * * * * * * * * * * * * * * * * //

dimensions      [0 1 -1 0 0 0 0];

internalField   nonuniform List<vector> 
7700
(
(3.08463e-36 8.30887e-37 0)
(3.84227e-35 6.92864e-36 0)
(2.17106e-34 7.54031e-35 0)
(3.13031e-33 6.31078e-35 0)
(2.94893e-33 -1.46389e-34 0)
(-2.94852e-33 -1.4632e-34 0)
(-3.12689e-33 6.40562e-35 0)
(-1.75574e-34 8.3219e-35 0)
(2.17487e-34 8.93408e-35 0)
(3.34779e-33 1.40344e-34 0)
(6.12074e-33 -7.53332e-35 0)
(2.58962e-34 -2.09497e-34 0)
(-2.68992e-33 6.31078e-35 0)
(2.99079e-33 1.3851e-34 0)
(3.13375e-33 -6.40626e-35 0)
(2.17487e-34 -7.54796e-35 0)
(3.847e-35 -6.93752e-36 0)
(3.06476e-36 -8.79093e-37 0)
(3.50954e-37 -6.97869e-38 0)
(2.71123e-38 -6.44846e-39 0)
(2.44973e-39 -4.68852e-40 0)
(1.76175e-40 -3.64474e-41 0)
(1.35485e-41 -2.43824e-42 0)
(9.60863e-43 -1.56673e-43 0)
(9.64169e-43 1.57308e-43 0)
(1.36058e-41 2.44792e-42 0)
(1.77012e-40 3.6604e-41 0)
(2.46237e-39 4.71122e-40 0)
(2.72748e-38 6.48244e-39 0)
(3.53226e-37 7.0219e-38 0)
(3.0894e-36 8.85067e-37 0)
(3.87935e-35 7.00078e-36 0)
(2.20195e-34 7.6288e-35 0)
(3.1691e-33 7.01081e-35 0)
(3.1691e-33 -7.01081e-35 0)
(2.20195e-34 -7.6288e-35 0)
(3.87935e-35 -7.00078e-36 0)
(3.0894e-36 -8.85067e-37 0)
(3.53226e-37 -7.0219e-38 0)
(2.72748e-38 -6.48245e-39 0)
(2.46233e-39 -4.71187e-40 0)
(1.76707e-40 -3.7175e-41 0)
(1.19523e-41 -7.90627e-42 0)
(-1.08881e-41 -2.96925e-41 0)
(3.95539e-43 -2.14793e-40 0)
(1.35191e-41 -2.12294e-41 0)
(5.69177e-37 -3.83612e-37 0)
(6.38402e-36 -3.56609e-36 0)
(3.75067e-35 -3.88448e-35 0)
(3.71211e-34 -3.24928e-35 0)
(3.3958e-34 7.53789e-35 0)
(-3.39502e-34 7.53448e-35 0)
(-3.70565e-34 -3.29663e-35 0)
(-3.05337e-35 -4.28553e-35 0)
(3.75788e-35 -4.60185e-35 0)
(4.08789e-34 -7.22533e-35 0)
(7.17757e-34 3.88104e-35 0)
(4.45405e-35 1.07872e-34 0)
(-2.95028e-34 -3.24928e-35 0)
(3.46613e-34 -7.13373e-35 0)
(3.71861e-34 3.29694e-35 0)
(3.75788e-35 3.88823e-35 0)
(6.39413e-36 3.57142e-36 0)
(5.79507e-37 4.39458e-37 0)
(6.60627e-38 3.43255e-38 0)
(5.42755e-39 3.10348e-39 0)
(4.92895e-40 2.22341e-40 0)
(3.67362e-41 1.70343e-41 0)
(2.84685e-42 1.12675e-42 0)
(2.06845e-43 7.17082e-44 0)
(2.07574e-43 -7.19944e-44 0)
(2.85927e-42 -1.13114e-42 0)
(3.69163e-41 -1.7106e-41 0)
(4.95546e-40 -2.23391e-40 0)
(5.46141e-39 -3.11938e-39 0)
(6.65185e-38 -3.45306e-38 0)
(5.84436e-37 -4.42337e-37 0)
(6.45469e-36 -3.60261e-36 0)
(3.80912e-35 -3.9287e-35 0)
(3.77665e-34 -3.60951e-35 0)
(3.77665e-34 3.60951e-35 0)
(3.80912e-35 3.9287e-35 0)
(6.45469e-36 3.60261e-36 0)
(5.84436e-37 4.42337e-37 0)
(6.65185e-38 3.45306e-38 0)
(5.46136e-39 3.11932e-39 0)
(4.95119e-40 2.22686e-40 0)
(3.28299e-41 1.07982e-41 0)
(-1.93643e-41 -6.00798e-41 0)
(-1.60287e-40 -3.38471e-40 0)
(4.26758e-42 -2.49741e-39 0)
(1.80561e-40 -2.45241e-40 0)
(1.13156e-37 -7.12885e-38 0)
(1.05745e-36 -6.5808e-37 0)
(4.00262e-36 -5.95401e-36 0)
(3.00043e-35 -4.78293e-36 0)
(2.69646e-35 1.14846e-35 0)
(-2.69478e-35 1.14777e-35 0)
(-2.98807e-35 -4.8722e-36 0)
(-2.83446e-36 -6.69546e-36 0)
(4.01821e-36 -7.27842e-36 0)
(3.40223e-35 -1.09092e-35 0)
(5.81355e-35 5.94709e-36 0)
(5.18371e-36 1.62675e-35 0)
(-2.17784e-35 -4.78293e-36 0)
(2.81456e-35 -1.07369e-35 0)
(3.01288e-35 4.87283e-36 0)
(4.01821e-36 5.96158e-36 0)
(1.05905e-36 6.59102e-37 0)
(1.09204e-37 8.24161e-38 0)
(1.42629e-38 6.9105e-39 0)
(1.24684e-39 6.30443e-40 0)
(1.2008e-40 4.69469e-41 0)
(9.25269e-42 3.62982e-42 0)
(7.38767e-43 2.46293e-43 0)
(5.4762e-44 1.58007e-44 0)
(5.49598e-44 -1.58656e-44 0)
(7.42105e-43 -2.4728e-43 0)
(9.30028e-42 -3.64562e-42 0)
(1.20767e-40 -4.71763e-41 0)
(1.25534e-39 -6.33825e-40 0)
(1.43736e-38 -6.95379e-39 0)
(1.10329e-37 -8.29991e-38 0)
(1.07205e-36 -6.65374e-37 0)
(4.11291e-36 -6.03699e-36 0)
(3.10762e-35 -5.44825e-36 0)
(3.10762e-35 5.44825e-36 0)
(4.11291e-36 6.03699e-36 0)
(1.07205e-36 6.65374e-37 0)
(1.10329e-37 8.29991e-38 0)
(1.43735e-38 6.95373e-39 0)
(1.25481e-39 6.33208e-40 0)
(1.16005e-40 3.9917e-41 0)
(-3.68135e-41 -6.18351e-41 0)
(-2.52476e-40 -6.42675e-40 0)
(-1.85692e-39 -3.60383e-39 0)
(4.46902e-41 -2.69521e-38 0)
(2.07114e-39 -2.632e-39 0)
(1.44733e-38 -1.59095e-38 0)
(1.18536e-37 -1.32005e-37 0)
(3.15412e-37 -1.13072e-36 0)
(1.83517e-36 -8.98653e-37 0)
(1.62656e-36 2.1813e-36 0)
(-1.62428e-36 2.1797e-36 0)
(-1.81957e-36 -9.18535e-37 0)
(-1.83043e-37 -1.28122e-36 0)
(3.1751e-37 -1.39665e-36 0)
(2.15266e-36 -2.06765e-36 0)
(3.59388e-36 1.12908e-36 0)
(4.49497e-37 3.07995e-36 0)
(-1.17671e-36 -8.98649e-37 0)
(1.76064e-36 -2.02933e-36 0)
(1.85091e-36 9.18691e-37 0)
(3.1751e-37 1.13248e-36 0)
(1.18709e-37 1.32255e-37 0)
(1.36683e-38 1.82824e-38 0)
(1.91513e-39 1.61681e-39 0)
(1.76378e-40 1.56107e-40 0)
(1.75021e-41 1.20228e-41 0)
(1.38913e-42 9.58593e-43 0)
(1.12821e-43 6.63442e-44 0)
(8.52749e-45 4.32573e-45 0)
(8.55898e-45 -4.34387e-45 0)
(1.13346e-43 -6.66175e-44 0)
(1.39653e-42 -9.62918e-43 0)
(1.76068e-41 -1.20845e-41 0)
(1.77654e-40 -1.56999e-40 0)
(1.93122e-39 -1.62786e-39 0)
(1.38269e-38 -1.84263e-38 0)
(1.20445e-37 -1.33714e-37 0)
(3.29228e-37 -1.14912e-36 0)
(1.9556e-36 -1.03235e-36 0)
(1.9556e-36 1.03235e-36 0)
(3.29228e-37 1.14912e-36 0)
(1.20445e-37 1.33714e-37 0)
(1.38269e-38 1.84263e-38 0)
(1.93076e-39 1.62734e-39 0)
(1.72157e-40 1.50977e-40 0)
(-3.1865e-41 -5.96096e-41 0)
(-4.83312e-40 -6.5263e-40 0)
(-2.69734e-39 -6.52801e-39 0)
(-2.00597e-38 -3.72465e-38 0)
(4.2344e-40 -2.84574e-37 0)
(2.21424e-38 -2.74821e-38 0)
(1.64921e-39 -3.79378e-39 0)
(1.40247e-38 -1.74625e-38 0)
(2.28066e-38 -1.36833e-37 0)
(7.71935e-38 -1.0676e-37 0)
(6.68461e-38 2.63107e-37 0)
(-6.65302e-38 2.62883e-37 0)
(-7.51812e-38 -1.09438e-37 0)
(-7.11034e-39 -1.56182e-37 0)
(2.30674e-38 -1.71026e-37 0)
(1.0024e-37 -2.48523e-37 0)
(1.59658e-37 1.36351e-37 0)
(3.86836e-38 3.69839e-37 0)
(-2.81103e-38 -1.06727e-37 0)
(8.27454e-38 -2.43306e-37 0)
(7.91896e-38 1.09461e-37 0)
(2.30674e-38 1.36836e-37 0)
(1.39404e-38 1.71198e-38 0)
(1.73115e-39 2.48325e-39 0)
(2.60806e-40 2.30243e-40 0)
(2.48912e-41 2.28669e-41 0)
(2.54694e-42 1.81378e-42 0)
(2.0629e-43 1.47109e-43 0)
(1.70276e-44 1.03762e-44 0)
(1.30356e-45 6.83636e-46 0)
(1.30845e-45 -6.86567e-46 0)
(1.71084e-44 -1.04199e-44 0)
(2.0742e-43 -1.47792e-43 0)
(2.56274e-42 -1.82342e-42 0)
(2.50803e-41 -2.30035e-41 0)
(2.63144e-40 -2.31908e-40 0)
(1.75346e-39 -2.50428e-39 0)
(1.41759e-38 -1.73269e-38 0)
(2.45326e-38 -1.39085e-37 0)
(9.13489e-38 -1.24052e-37 0)
(9.13489e-38 1.24052e-37 0)
(2.45326e-38 1.39085e-37 0)
(1.41759e-38 1.73269e-38 0)
(1.75307e-39 2.50395e-39 0)
(2.58574e-40 2.274e-40 0)
(-2.9271e-41 -2.98771e-41 0)
(-4.91797e-40 -6.35093e-40 0)
(-4.92666e-39 -5.88629e-39 0)
(-2.79084e-38 -5.98189e-38 0)
(-2.12097e-37 -3.49987e-37 0)
(3.75195e-39 -2.72138e-36 0)
(2.31467e-37 -2.61872e-37 0)
(-2.43752e-39 -1.66205e-38 0)
(2.53993e-39 -6.13332e-39 0)
(1.85079e-39 -1.99142e-38 0)
(1.44777e-39 -1.3758e-38 0)
(9.67104e-40 3.32552e-38 0)
(-9.02411e-40 3.32718e-38 0)
(-1.04169e-39 -1.37908e-38 0)
(3.01832e-41 -1.98648e-38 0)
(1.60813e-39 -2.17886e-38 0)
(2.86671e-39 -3.14221e-38 0)
(3.80302e-39 1.72544e-38 0)
(3.20763e-39 4.67257e-38 0)
(2.27142e-39 -1.3416e-38 0)
(2.57382e-39 -3.07029e-38 0)
(1.47795e-39 1.37935e-38 0)
(1.60813e-39 1.73234e-38 0)
(1.41889e-39 2.23626e-39 0)
(1.87069e-40 3.41764e-40 0)
(2.94385e-41 3.26893e-41 0)
(2.89893e-42 3.34288e-42 0)
(3.02766e-43 2.70523e-43 0)
(2.49967e-44 2.22994e-44 0)
(2.08831e-45 1.59228e-45 0)
(1.61943e-46 1.05827e-46 0)
(1.6256e-46 -1.06287e-46 0)
(2.09842e-45 -1.5991e-45 0)
(2.51369e-44 -2.24052e-44 0)
(3.04701e-43 -2.72001e-43 0)
(2.92182e-42 -3.36357e-42 0)
(2.9716e-41 -3.29373e-41 0)
(1.89661e-40 -3.44833e-40 0)
(1.44538e-39 -2.26557e-39 0)
(1.76515e-39 -1.76319e-38 0)
(2.70396e-39 -1.56813e-38 0)
(2.70396e-39 1.56813e-38 0)
(1.76513e-39 1.76319e-38 0)
(1.44513e-39 2.26537e-39 0)
(1.86229e-40 3.42129e-40 0)
(-1.0488e-41 -4.60063e-42 0)
(-4.80714e-40 -4.41791e-40 0)
(-4.45845e-39 -5.45833e-39 0)
(-4.51981e-38 -5.13907e-38 0)
(-2.62401e-37 -5.36958e-37 0)
(-2.03035e-36 -3.24767e-36 0)
(2.71556e-38 -2.61017e-35 0)
(2.18315e-36 -2.47282e-36 0)
(-2.50677e-38 -1.57096e-37 0)
(1.18093e-38 -3.67783e-38 0)
(3.00217e-39 -2.64614e-38 0)
(1.75748e-39 -4.55849e-39 0)
(5.00037e-41 3.032e-39 0)
(2.52151e-40 3.471e-39 0)
(2.42588e-40 -1.45365e-39 0)
(4.54928e-41 -2.11384e-39 0)
(1.25053e-40 -2.32364e-39 0)
(-9.02404e-41 -3.31691e-39 0)
(-2.56304e-40 1.82532e-39 0)
(2.90787e-40 4.9289e-39 0)
(4.98584e-40 -1.40606e-39 0)
(-3.77958e-41 -3.23516e-39 0)
(-1.91699e-40 1.44903e-39 0)
(1.25017e-40 1.83338e-39 0)
(1.46514e-40 2.45547e-40 0)
(1.9985e-41 3.87855e-41 0)
(3.25362e-42 3.8192e-42 0)
(3.27052e-43 3.98339e-43 0)
(3.47369e-44 3.2855e-44 0)
(2.90552e-45 2.74111e-45 0)
(2.45064e-46 1.98171e-46 0)
(1.91672e-47 1.32658e-47 0)
(1.92408e-47 -1.33242e-47 0)
(2.46266e-46 -1.99034e-46 0)
(2.9221e-45 -2.75437e-45 0)
(3.49638e-44 -3.30389e-44 0)
(3.29709e-43 -4.0088e-43 0)
(3.28542e-42 -3.84929e-42 0)
(2.02768e-41 -3.91505e-41 0)
(1.49435e-40 -2.48962e-40 0)
(1.41679e-40 -1.86828e-39 0)
(-6.58264e-41 -1.65499e-39 0)
(-6.58354e-41 1.65499e-39 0)
(1.4153e-40 1.8682e-39 0)
(1.47371e-40 2.47633e-40 0)
(-8.35494e-42 2.05782e-41 0)
(-3.35836e-40 -2.56744e-40 0)
(-4.15191e-39 -3.1302e-39 0)
(-3.89724e-38 -3.90648e-38 0)
(-4.05835e-37 -3.77204e-37 0)
(-2.4309e-36 -4.05647e-36 0)
(-1.94573e-35 -2.58381e-35 0)
(1.70913e-37 -2.12492e-34 0)
(2.06036e-35 -2.01723e-35 0)
(-2.20902e-37 -1.33256e-36 0)
(1.31479e-37 -3.29912e-37 0)
(2.94546e-38 -2.32537e-37 0)
(1.8624e-38 -2.90775e-38 0)
(2.34609e-39 -4.02583e-39 0)
(4.02334e-40 -4.85572e-41 0)
(7.19652e-41 -1.95593e-40 0)
(9.80233e-42 -2.27409e-40 0)
(1.04538e-41 -2.46761e-40 0)
(-2.31534e-41 -3.49916e-40 0)
(-4.84882e-41 1.92694e-40 0)
(2.58429e-41 5.19673e-40 0)
(5.68171e-41 -1.47694e-40 0)
(-1.48486e-41 -3.40818e-40 0)
(-3.10209e-41 1.5247e-40 0)
(1.01392e-41 1.93609e-40 0)
(1.38354e-41 2.64808e-41 0)
(1.94207e-42 4.30224e-42 0)
(3.23223e-43 4.31918e-43 0)
(3.31041e-44 4.57945e-44 0)
(3.55955e-45 3.82641e-45 0)
(3.01419e-46 3.22298e-46 0)
(2.56159e-47 2.34929e-47 0)
(2.02029e-48 1.58083e-48 0)
(2.02813e-48 -1.58785e-48 0)
(2.57432e-47 -2.35962e-47 0)
(3.03165e-46 -3.23878e-46 0)
(3.58326e-45 -3.84821e-45 0)
(3.33796e-44 -4.6093e-44 0)
(3.26477e-43 -4.35418e-43 0)
(1.97156e-42 -4.34416e-42 0)
(1.41249e-41 -2.68663e-41 0)
(1.17506e-41 -1.97472e-40 0)
(-1.91982e-41 -1.74559e-40 0)
(-1.92597e-41 1.74521e-40 0)
(1.07312e-41 1.96915e-40 0)
(-1.08806e-43 1.81257e-41 0)
(-1.97567e-40 -1.1914e-40 0)
(-2.39325e-39 -1.76435e-39 0)
(-2.98024e-38 -2.1582e-38 0)
(-2.86343e-37 -2.77465e-37 0)
(-3.06002e-36 -2.77005e-36 0)
(-1.91721e-35 -3.13641e-35 0)
(-1.5726e-34 -2.13627e-34 0)
(4.29893e-37 -1.8628e-33 0)
(1.62502e-34 -1.71947e-34 0)
(-1.45591e-36 -1.15256e-35 0)
(1.51244e-36 -2.62603e-36 0)
(3.13513e-37 -1.81808e-36 0)
(1.78385e-37 -2.20722e-37 0)
(2.18604e-38 -3.21597e-38 0)
(3.32474e-39 -2.96407e-39 0)
(3.21481e-40 -3.15699e-40 0)
(3.3369e-41 -4.54949e-41 0)
(3.53663e-42 -2.56008e-41 0)
(-2.48028e-42 -3.34701e-41 0)
(-5.38409e-42 1.83711e-41 0)
(2.33594e-42 4.94789e-41 0)
(5.6286e-42 -1.40016e-41 0)
(-1.79309e-42 -3.2426e-41 0)
(-3.35821e-42 1.4478e-41 0)
(8.74846e-43 1.84736e-41 0)
(1.28375e-42 2.58546e-42 0)
(1.83412e-43 4.28301e-43 0)
(3.10385e-44 4.37877e-44 0)
(3.22051e-45 4.69917e-45 0)
(3.49595e-46 3.97494e-46 0)
(2.98613e-47 3.37348e-47 0)
(2.55195e-48 2.47885e-48 0)
(2.02415e-49 1.67532e-49 0)
(2.03204e-49 -1.68282e-49 0)
(2.56473e-48 -2.48986e-48 0)
(3.00361e-47 -3.39023e-47 0)
(3.51955e-46 -3.99793e-46 0)
(3.24777e-45 -4.73041e-45 0)
(3.13576e-44 -4.41512e-44 0)
(1.86273e-43 -4.32599e-43 0)
(1.31142e-42 -2.62451e-42 0)
(1.02493e-42 -1.88579e-41 0)
(-2.29151e-42 -1.66346e-41 0)
(-2.69387e-42 1.64735e-41 0)
(-5.71327e-42 1.6436e-41 0)
(-9.38433e-41 -3.5712e-41 0)
(-1.35825e-39 -5.47228e-40 0)
(-1.65794e-38 -7.94535e-39 0)
(-2.12311e-37 -9.94053e-38 0)
(-2.09924e-36 -1.31823e-36 0)
(-2.34531e-35 -1.39403e-35 0)
(-1.54567e-34 -1.68432e-34 0)
(-1.34955e-33 -1.30981e-33 0)
(-1.96594e-36 -1.17642e-32 0)
(1.36409e-33 -1.10715e-33 0)
(-5.14818e-36 -7.973e-35 0)
(2.02128e-35 -2.08767e-35 0)
(3.33571e-36 -1.55746e-35 0)
(1.4306e-36 -1.7939e-36 0)
(1.66809e-37 -2.51628e-37 0)
(2.4161e-38 -2.2507e-38 0)
(2.2531e-39 -2.20517e-39 0)
(2.27401e-40 -1.7339e-40 0)
(1.82844e-41 -1.59877e-41 0)
(1.24238e-42 -4.05623e-42 0)
(-3.88197e-43 1.64145e-42 0)
(2.07295e-43 4.5899e-42 0)
(4.97774e-43 -1.29654e-42 0)
(-1.6732e-43 -3.00912e-42 0)
(-3.05039e-43 1.34196e-42 0)
(7.32365e-44 1.71762e-42 0)
(1.11048e-43 2.4406e-43 0)
(1.61377e-44 4.10281e-44 0)
(2.76333e-45 4.24722e-45 0)
(2.90253e-46 4.59833e-46 0)
(3.17379e-47 3.92222e-47 0)
(2.73334e-48 3.34581e-48 0)
(2.34648e-49 2.47127e-49 0)
(1.87137e-50 1.67449e-50 0)
(1.87868e-50 -1.68203e-50 0)
(2.35826e-49 -2.48233e-49 0)
(2.74936e-48 -3.36259e-48 0)
(3.19519e-47 -3.94521e-47 0)
(2.92691e-46 -4.62945e-46 0)
(2.79115e-45 -4.28338e-45 0)
(1.6374e-44 -4.14546e-44 0)
(1.13116e-43 -2.47962e-43 0)
(7.95793e-44 -1.75659e-42 0)
(-3.30248e-43 -1.58397e-42 0)
(-2.11283e-42 8.49783e-43 0)
(-3.00226e-41 -9.42106e-42 0)
(-4.2992e-40 -1.80184e-40 0)
(-6.22979e-39 -2.61856e-39 0)
(-7.764e-38 -3.9149e-38 0)
(-1.01894e-36 -5.03558e-37 0)
(-1.04849e-35 -7.07537e-36 0)
(-1.21806e-34 -8.03085e-35 0)
(-8.67568e-34 -1.09165e-33 0)
(-7.86289e-33 -9.85873e-33 0)
(-4.57701e-35 -1.00406e-31 0)
(7.45389e-33 -8.7768e-33 0)
(-2.26648e-36 -6.22928e-37 0)
(-3.06949e-35 -5.39095e-36 0)
(-1.77927e-34 -6.49454e-35 0)
(-2.83567e-33 -5.53398e-35 0)
(-2.68644e-33 1.26386e-34 0)
(2.68644e-33 1.26386e-34 0)
(2.83567e-33 -5.53398e-35 0)
(1.77928e-34 -6.49453e-35 0)
(3.07061e-35 -5.39235e-36 0)
(2.23609e-36 -6.55631e-37 0)
(2.46841e-37 -4.7896e-38 0)
(1.74964e-38 -4.25173e-39 0)
(-2.98151e-44 -5.71125e-40 0)
(-1.74969e-38 -4.25181e-39 0)
(-2.46849e-37 -4.78973e-38 0)
(-2.23619e-36 -6.55652e-37 0)
(-3.07076e-35 -5.39264e-36 0)
(-1.77945e-34 -6.49496e-35 0)
(-2.83592e-33 -5.5388e-35 0)
(-2.6887e-33 1.25726e-34 0)
(2.65549e-33 1.20945e-34 0)
(2.65549e-33 -1.20945e-34 0)
(-2.6887e-33 -1.25726e-34 0)
(-2.83592e-33 5.5388e-35 0)
(-1.77945e-34 6.49496e-35 0)
(-3.07076e-35 5.39263e-36 0)
(-2.2363e-36 6.55631e-37 0)
(-2.48384e-37 4.76092e-38 0)
(-3.52912e-38 -1.98051e-41 0)
(-2.49796e-37 -4.78748e-38 0)
(-2.25236e-36 -6.59575e-37 0)
(-3.09368e-35 -5.43628e-36 0)
(-1.79933e-34 -6.5557e-35 0)
(-2.86437e-33 -6.01205e-35 0)
(-2.83567e-33 6.62209e-35 0)
(-7.85451e-41 1.3121e-34 0)
(2.83567e-33 6.62207e-35 0)
(2.86436e-33 -6.01236e-35 0)
(1.79694e-34 -6.5563e-35 0)
(2.96799e-35 -5.03471e-36 0)
(-4.18538e-37 2.8872e-37 0)
(-5.08231e-36 2.7744e-36 0)
(-3.08273e-35 3.34539e-35 0)
(-3.37587e-34 2.8492e-35 0)
(-3.11465e-34 -6.50745e-35 0)
(3.11465e-34 -6.50745e-35 0)
(3.37587e-34 2.8492e-35 0)
(3.08274e-35 3.34539e-35 0)
(5.08496e-36 2.77573e-36 0)
(4.2264e-37 3.27277e-37 0)
(4.62763e-38 2.35315e-38 0)
(3.49673e-39 2.04312e-39 0)
(-6.4463e-45 2.7056e-40 0)
(-3.49683e-39 2.04316e-39 0)
(-4.62779e-38 2.35321e-38 0)
(-4.22662e-37 3.27287e-37 0)
(-5.08527e-36 2.77587e-36 0)
(-3.08309e-35 3.34559e-35 0)
(-3.37634e-34 2.85156e-35 0)
(-3.11891e-34 -6.47452e-35 0)
(3.06334e-34 -6.22751e-35 0)
(3.06334e-34 6.22751e-35 0)
(-3.11891e-34 6.47452e-35 0)
(-3.37634e-34 -2.85156e-35 0)
(-3.08309e-35 -3.34559e-35 0)
(-5.08527e-36 -2.77587e-36 0)
(-4.22683e-37 -3.27277e-37 0)
(-4.65858e-38 -2.33956e-38 0)
(-7.05554e-39 9.25403e-42 0)
(-4.68679e-38 2.35216e-38 0)
(-4.25894e-37 3.29174e-37 0)
(-5.12801e-36 2.79736e-36 0)
(-3.1207e-35 3.37595e-35 0)
(-3.42293e-34 3.0962e-35 0)
(-3.37587e-34 -3.40908e-35 0)
(-1.87682e-41 -6.75664e-35 0)
(3.37587e-34 -3.40907e-35 0)
(3.4229e-34 3.09632e-35 0)
(3.11564e-35 3.37493e-35 0)
(4.82174e-36 2.22182e-36 0)
(-8.35721e-38 5.3515e-38 0)
(-8.5151e-37 5.13106e-37 0)
(-3.30493e-36 5.14097e-36 0)
(-2.74612e-35 4.22363e-36 0)
(-2.49372e-35 -9.94431e-36 0)
(2.49372e-35 -9.94431e-36 0)
(2.74612e-35 4.22363e-36 0)
(3.30491e-36 5.14096e-36 0)
(8.51646e-37 5.13337e-37 0)
(8.01205e-38 6.1206e-38 0)
(1.00546e-38 4.73311e-39 0)
(8.05876e-40 4.13634e-40 0)
(-1.73537e-45 5.70192e-41 0)
(-8.05902e-40 4.13642e-40 0)
(-1.0055e-38 4.73325e-39 0)
(-8.01258e-38 6.12081e-38 0)
(-8.51721e-37 5.13366e-37 0)
(-3.30573e-36 5.14137e-36 0)
(-2.74714e-35 4.22839e-36 0)
(-2.50181e-35 -9.88269e-36 0)
(2.40754e-35 -9.42621e-36 0)
(2.40754e-35 9.42621e-36 0)
(-2.50181e-35 9.88269e-36 0)
(-2.74714e-35 -4.22839e-36 0)
(-3.30573e-36 -5.14137e-36 0)
(-8.51721e-37 -5.13366e-37 0)
(-8.01312e-38 -6.1206e-38 0)
(-1.01303e-38 -4.70448e-39 0)
(-1.62741e-39 1.96134e-42 0)
(-1.01992e-38 4.73101e-39 0)
(-8.08674e-38 6.15889e-38 0)
(-8.6096e-37 5.17685e-37 0)
(-3.37572e-36 5.19782e-36 0)
(-2.82421e-35 4.68011e-36 0)
(-2.74612e-35 -5.25983e-36 0)
(-1.97596e-42 -1.04052e-35 0)
(2.74612e-35 -5.2598e-36 0)
(2.82419e-35 4.68037e-36 0)
(3.37285e-36 5.1961e-36 0)
(8.4536e-37 4.10816e-37 0)
(-1.07409e-38 1.18837e-38 0)
(-9.61719e-38 1.03017e-37 0)
(-2.6182e-37 9.77545e-37 0)
(-1.69469e-36 7.95567e-37 0)
(-1.52022e-36 -1.89106e-36 0)
(1.52022e-36 -1.89106e-36 0)
(1.69469e-36 7.95567e-37 0)
(2.61815e-37 9.77546e-37 0)
(9.61627e-38 1.03096e-37 0)
(1.00688e-38 1.36326e-38 0)
(1.35328e-39 1.11063e-39 0)
(1.14151e-40 1.02809e-40 0)
(-2.72887e-46 1.46372e-41 0)
(-1.14155e-40 1.02811e-40 0)
(-1.35335e-39 1.11066e-39 0)
(-1.00696e-38 1.36332e-38 0)
(-9.61737e-38 1.03103e-37 0)
(-2.61931e-37 9.77649e-37 0)
(-1.69606e-36 7.96685e-37 0)
(-1.53041e-36 -1.87733e-36 0)
(1.42269e-36 -1.78685e-36 0)
(1.42269e-36 1.78685e-36 0)
(-1.53041e-36 1.87733e-36 0)
(-1.69606e-36 -7.96685e-37 0)
(-2.61931e-37 -9.77649e-37 0)
(-9.61737e-38 -1.03103e-37 0)
(-1.00704e-38 -1.36326e-38 0)
(-1.36434e-39 -1.10328e-39 0)
(-2.30655e-40 5.1847e-43 0)
(-1.37435e-39 1.11007e-39 0)
(-1.01744e-38 1.37275e-38 0)
(-9.74113e-38 1.04111e-37 0)
(-2.70635e-37 9.90164e-37 0)
(-1.78204e-36 8.86046e-37 0)
(-1.69469e-36 -1.00399e-36 0)
(-1.30197e-43 -1.98256e-36 0)
(1.69469e-36 -1.00399e-36 0)
(1.78205e-36 8.86061e-37 0)
(2.70729e-37 9.89509e-37 0)
(9.801e-38 8.12509e-38 0)
(-1.41193e-39 1.60556e-39 0)
(-1.13804e-38 1.3347e-38 0)
(-1.90845e-38 1.18246e-37 0)
(-7.35837e-38 9.48003e-38 0)
(-6.47651e-38 -2.28435e-37 0)
(6.47651e-38 -2.28435e-37 0)
(7.35837e-38 9.48003e-38 0)
(1.90834e-38 1.18246e-37 0)
(1.13743e-38 1.33597e-38 0)
(1.27954e-39 1.85376e-39 0)
(1.8487e-40 1.58357e-40 0)
(1.61346e-41 1.5069e-41 0)
(-4.20906e-47 2.20929e-42 0)
(-1.61352e-41 1.50693e-41 0)
(-1.84879e-40 1.58363e-40 0)
(-1.27966e-39 1.85385e-39 0)
(-1.13759e-38 1.33608e-38 0)
(-1.90998e-38 1.18261e-37 0)
(-7.37702e-38 9.49598e-38 0)
(-6.60611e-38 -2.26566e-37 0)
(5.32044e-38 -2.14916e-37 0)
(5.32044e-38 2.14916e-37 0)
(-6.60611e-38 2.26566e-37 0)
(-7.37702e-38 -9.49598e-38 0)
(-1.90998e-38 -1.18261e-37 0)
(-1.13759e-38 -1.33608e-38 0)
(-1.27978e-39 -1.85376e-39 0)
(-1.86482e-40 -1.57247e-40 0)
(-3.26188e-41 7.94344e-44 0)
(-1.87938e-40 1.58272e-40 0)
(-1.29444e-39 1.86764e-39 0)
(-1.15444e-38 1.35041e-38 0)
(-2.01929e-38 1.19956e-37 0)
(-8.38485e-38 1.06451e-37 0)
(-7.35837e-38 -1.21839e-37 0)
(1.29703e-44 -2.4023e-37 0)
(7.3584e-38 -1.21839e-37 0)
(8.38553e-38 1.0645e-37 0)
(2.02766e-38 1.19846e-37 0)
(1.20062e-38 1.04099e-38 0)
(-1.55943e-40 2.20858e-40 0)
(-1.1637e-39 1.74388e-39 0)
(-1.33536e-39 1.4979e-38 0)
(-1.50253e-39 1.19366e-38 0)
(-1.21058e-39 -2.89423e-38 0)
(1.21058e-39 -2.89423e-38 0)
(1.50252e-39 1.19366e-38 0)
(1.33522e-39 1.49791e-38 0)
(1.16266e-39 1.7461e-39 0)
(1.38562e-40 2.55646e-40 0)
(2.08994e-41 2.2517e-41 0)
(1.8807e-42 2.20671e-42 0)
(-5.26516e-48 3.29875e-43 0)
(-1.88078e-42 2.20677e-42 0)
(-2.09006e-41 2.25179e-41 0)
(-1.38577e-40 2.55659e-40 0)
(-1.16285e-39 1.74626e-39 0)
(-1.33713e-39 1.49813e-38 0)
(-1.52361e-39 1.19593e-38 0)
(-1.35105e-39 -2.86845e-38 0)
(2.6828e-41 -2.71736e-38 0)
(2.6828e-41 2.71736e-38 0)
(-1.35105e-39 2.86845e-38 0)
(-1.52361e-39 -1.19593e-38 0)
(-1.33713e-39 -1.49813e-38 0)
(-1.16285e-39 -1.74626e-39 0)
(-1.38592e-40 -2.55646e-40 0)
(-2.10913e-41 -2.23513e-41 0)
(-3.80377e-42 1.20411e-44 0)
(-2.12641e-41 2.25041e-41 0)
(-1.40297e-40 2.57674e-40 0)
(-1.18184e-39 1.76657e-39 0)
(-1.4546e-39 1.52143e-38 0)
(-2.5458e-39 1.34475e-38 0)
(-1.50252e-39 -1.54742e-38 0)
(4.00723e-45 -3.04739e-38 0)
(1.50259e-39 -1.54742e-38 0)
(2.54694e-39 1.34469e-38 0)
(1.46854e-39 1.51955e-38 0)
(1.2558e-39 1.34219e-39 0)
(-1.56423e-41 2.70995e-41 0)
(-1.20693e-40 1.90214e-40 0)
(-1.04062e-40 1.58617e-39 0)
(1.58423e-40 1.2535e-39 0)
(1.5489e-40 -3.06365e-39 0)
(-1.54889e-40 -3.06365e-39 0)
(-1.58416e-40 1.25351e-39 0)
(1.04126e-40 1.58633e-39 0)
(1.20356e-40 1.91853e-40 0)
(1.48212e-41 2.90404e-41 0)
(2.31291e-42 2.63317e-42 0)
(2.12324e-43 2.63128e-43 0)
(-6.26402e-49 4.00827e-44 0)
(-2.12333e-43 2.63135e-43 0)
(-2.31305e-42 2.63328e-42 0)
(-1.48229e-41 2.9042e-41 0)
(-1.20378e-40 1.91873e-40 0)
(-1.04342e-40 1.58659e-39 0)
(1.56081e-40 1.25617e-39 0)
(1.39852e-40 -3.03435e-39 0)
(-2.77579e-40 -2.86915e-39 0)
(-2.77579e-40 2.86915e-39 0)
(1.39852e-40 3.03435e-39 0)
(1.56081e-40 -1.25617e-39 0)
(-1.04342e-40 -1.58659e-39 0)
(-1.20378e-40 -1.91873e-40 0)
(-1.48246e-41 -2.90404e-41 0)
(-2.33495e-42 -2.61303e-42 0)
(-4.29575e-43 1.47879e-45 0)
(-2.35477e-42 2.63158e-42 0)
(-1.50168e-41 2.92818e-41 0)
(-1.22475e-40 1.94243e-40 0)
(-1.16829e-40 1.61298e-39 0)
(5.07623e-41 1.41872e-39 0)
(1.58416e-40 -1.64253e-39 0)
(7.40006e-46 -3.23126e-39 0)
(-1.58404e-40 -1.64253e-39 0)
(-5.05977e-41 1.4186e-39 0)
(1.18779e-40 1.61056e-39 0)
(1.32584e-40 1.46114e-40 0)
(3.07823e-41 6.25004e-41 0)
(-1.01549e-41 3.22847e-42 0)
(-7.33828e-42 1.65847e-40 0)
(2.68834e-41 1.31668e-40 0)
(2.50996e-41 -3.23683e-40 0)
(-2.50883e-41 -3.23672e-40 0)
(-2.67764e-41 1.31828e-40 0)
(8.46264e-42 1.67589e-40 0)
(1.13811e-41 2.06987e-41 0)
(1.44147e-42 3.22454e-42 0)
(2.29932e-43 2.98027e-43 0)
(2.15004e-44 3.02752e-44 0)
(-6.62961e-50 4.67073e-45 0)
(-2.15013e-44 3.02761e-44 0)
(-2.29946e-43 2.9804e-43 0)
(-1.44165e-42 3.22472e-42 0)
(-1.13833e-41 2.0701e-41 0)
(-8.48449e-42 1.67619e-40 0)
(2.65442e-41 1.32129e-40 0)
(2.36258e-41 -3.20417e-40 0)
(-3.67024e-41 -3.02672e-40 0)
(-3.67024e-41 3.02672e-40 0)
(2.36258e-41 3.20417e-40 0)
(2.65442e-41 -1.32129e-40 0)
(-8.48449e-42 -1.67619e-40 0)
(-1.13834e-41 -2.0701e-41 0)
(-1.44183e-42 -3.22454e-42 0)
(-2.32192e-43 -2.9568e-43 0)
(-4.35119e-44 1.73826e-46 0)
(-2.34221e-43 2.9784e-43 0)
(-1.46127e-42 3.25228e-42 0)
(-1.15915e-41 2.09687e-41 0)
(-9.69378e-42 1.70544e-40 0)
(1.66265e-41 1.49573e-40 0)
(2.67764e-41 -1.73827e-40 0)
(9.74657e-47 -3.41688e-40 0)
(-2.6775e-41 -1.73828e-40 0)
(-1.66074e-41 1.49555e-40 0)
(9.91372e-42 1.70245e-40 0)
(1.27128e-41 1.56302e-41 0)
(9.94961e-40 -1.73539e-41 0)
(3.64813e-41 -1.70048e-40 0)
(1.53513e-41 -6.2631e-43 0)
(4.28229e-42 1.12411e-41 0)
(2.83407e-42 -3.09708e-41 0)
(-2.70765e-42 -3.08935e-41 0)
(-2.92511e-42 1.25139e-41 0)
(7.30922e-43 1.59977e-41 0)
(1.05682e-42 2.02183e-42 0)
(1.36204e-43 3.21188e-43 0)
(2.20924e-44 3.02305e-44 0)
(2.09233e-45 3.10782e-45 0)
(-6.64929e-51 4.85336e-46 0)
(-2.09243e-45 3.10791e-45 0)
(-2.20938e-44 3.02319e-44 0)
(-1.36221e-43 3.21207e-43 0)
(-1.05703e-42 2.02207e-42 0)
(-7.33017e-43 1.60009e-41 0)
(2.90333e-42 1.25446e-41 0)
(2.5774e-42 -3.05642e-41 0)
(-3.79486e-42 -2.88362e-41 0)
(-3.79486e-42 2.88362e-41 0)
(2.5774e-42 3.05642e-41 0)
(2.90333e-42 -1.25446e-41 0)
(-7.33017e-43 -1.60009e-41 0)
(-1.05704e-42 -2.02207e-42 0)
(-1.36238e-43 -3.21188e-43 0)
(-2.23145e-44 -2.99866e-44 0)
(-4.23531e-45 1.81823e-47 0)
(-2.25137e-44 3.02109e-44 0)
(-1.38129e-43 3.24032e-43 0)
(-1.077e-42 2.04919e-42 0)
(-8.46908e-43 1.62916e-41 0)
(1.98484e-42 1.42422e-41 0)
(2.92564e-42 -1.66188e-41 0)
(1.15135e-47 -3.26441e-41 0)
(-2.92547e-42 -1.66189e-41 0)
(-1.98279e-42 1.424e-41 0)
(8.70091e-43 1.62594e-41 0)
(1.1942e-42 1.51785e-42 0)
(2.52443e-38 1.10852e-38 0)
(2.04141e-39 -1.90104e-39 0)
(1.94216e-40 -1.81659e-40 0)
(1.40608e-41 -1.05399e-41 0)
(1.20928e-42 -3.58295e-42 0)
(-1.85995e-43 -2.91144e-42 0)
(-2.63085e-43 1.15749e-42 0)
(6.14268e-44 1.48775e-42 0)
(9.14769e-44 1.90909e-43 0)
(1.19897e-44 3.0781e-44 0)
(1.96752e-45 2.93342e-45 0)
(1.88616e-46 3.04206e-46 0)
(-5.52369e-52 4.79e-47 0)
(-1.88624e-46 3.04215e-46 0)
(-1.96762e-45 2.93357e-45 0)
(-1.19907e-44 3.07832e-44 0)
(-9.14856e-44 1.90938e-43 0)
(-6.14115e-44 1.48816e-42 0)
(2.6474e-43 1.16257e-42 0)
(2.34494e-43 -2.84134e-42 0)
(-3.40128e-43 -2.67855e-42 0)
(-3.40128e-43 2.67855e-42 0)
(2.34494e-43 2.84134e-42 0)
(2.6474e-43 -1.16257e-42 0)
(-6.14115e-44 -1.48816e-42 0)
(-9.14857e-44 -1.90938e-43 0)
(-1.19923e-44 -3.07812e-44 0)
(-1.98765e-45 -2.90936e-45 0)
(-3.81867e-46 1.80256e-48 0)
(-2.00573e-45 2.93149e-45 0)
(-1.21626e-44 3.10594e-44 0)
(-9.32615e-44 1.93567e-43 0)
(-7.14131e-44 1.51599e-42 0)
(1.85455e-43 1.3224e-42 0)
(2.66727e-43 -1.54735e-42 0)
(1.18835e-48 -3.03789e-42 0)
(-2.6671e-43 -1.54737e-42 0)
(-1.85257e-43 1.32215e-42 0)
(7.36039e-44 1.5127e-42 0)
(1.04272e-43 1.4268e-43 0)
(1.06516e-34 -7.54747e-34 0)
(3.07115e-34 -1.48386e-34 0)
(4.4126e-35 -1.00906e-34 0)
(1.50131e-35 -1.11408e-35 0)
(1.61249e-36 -1.44053e-36 0)
(2.22558e-37 -1.2379e-37 0)
(1.98835e-38 -1.16115e-38 0)
(1.96015e-39 -8.81803e-40 0)
(1.53029e-40 -6.95186e-41 0)
(1.2351e-41 -4.96581e-42 0)
(8.3306e-43 -2.22885e-43 0)
(7.28785e-44 2.67255e-43 0)
(3.47285e-44 -8.2321e-44 0)
(-1.03578e-44 -1.88608e-43 0)
(-1.91288e-44 8.4001e-44 0)
(4.44523e-45 1.07824e-43 0)
(6.84036e-45 1.55663e-44 0)
(1.00375e-45 2.67143e-45 0)
(1.73124e-46 2.80791e-46 0)
(1.83116e-47 3.08321e-47 0)
(2.00992e-48 2.66107e-48 0)
(1.73822e-49 2.29208e-49 0)
(1.4946e-50 1.70766e-50 0)
(1.19431e-51 1.16435e-51 0)
(1.19758e-51 -1.16963e-51 0)
(1.49885e-50 -1.71534e-50 0)
(1.74136e-49 -2.30362e-49 0)
(2.00853e-48 -2.67668e-48 0)
(1.81608e-47 -3.10396e-47 0)
(1.68784e-46 -2.83131e-46 0)
(9.02664e-46 -2.69783e-45 0)
(4.80197e-45 -1.57832e-44 0)
(-3.33312e-44 -1.09615e-43 0)
(-6.85866e-43 -8.65928e-44 0)
(-1.08568e-41 2.69251e-43 0)
(-1.75245e-40 2.81202e-42 0)
(-2.54668e-39 4.11191e-41 0)
(-3.80006e-38 5.46451e-40 0)
(-4.85148e-37 6.18189e-39 0)
(-6.66091e-36 1.45723e-38 0)
(-7.10886e-35 -1.85819e-36 0)
(-8.90877e-34 -8.17914e-35 0)
(-6.74629e-33 -2.15487e-33 0)
(-7.15046e-32 -3.97462e-32 0)
(2.2982e-34 -4.16655e-31 0)
(7.16671e-32 -3.98208e-32 0)
(4.54787e-33 -4.94437e-33 0)
(7.24565e-33 -1.4898e-33 0)
(7.65689e-34 -1.20695e-33 0)
(1.44507e-34 -1.16989e-34 0)
(1.36302e-35 -1.47543e-35 0)
(1.62987e-36 -1.19723e-36 0)
(1.375e-37 -1.10489e-37 0)
(1.28136e-38 -8.12156e-39 0)
(9.718e-40 -6.31358e-40 0)
(7.64554e-41 -4.25252e-41 0)
(5.25835e-42 -2.90671e-42 0)
(3.64582e-43 -1.64368e-43 0)
(2.44437e-44 -1.57523e-44 0)
(9.05941e-46 -1.13117e-44 0)
(-8.61814e-46 4.71232e-45 0)
(2.21483e-46 6.108e-45 0)
(3.36408e-46 8.90013e-46 0)
(4.99153e-47 1.53117e-46 0)
(8.70899e-48 1.61811e-47 0)
(9.30256e-49 1.77724e-48 0)
(1.02903e-49 1.53752e-49 0)
(8.96374e-51 1.32281e-50 0)
(7.74663e-52 9.85746e-52 0)
(6.22434e-53 6.70842e-53 0)
(6.29352e-53 -6.71655e-53 0)
(7.88989e-52 -9.85303e-52 0)
(9.24074e-51 -1.31859e-50 0)
(1.08302e-49 -1.52306e-49 0)
(1.0331e-48 -1.73968e-48 0)
(1.06683e-47 -1.53103e-47 0)
(8.59376e-47 -1.34676e-46 0)
(9.92541e-46 -5.2387e-46 0)
(1.15911e-44 8.21275e-46 0)
(1.93378e-43 1.18728e-43 0)
(3.10506e-42 2.15191e-42 0)
(4.90867e-41 3.45063e-41 0)
(7.08399e-40 5.47326e-40 0)
(1.02587e-38 7.69381e-39 0)
(1.30191e-37 1.00973e-37 0)
(1.71313e-36 7.52119e-37 0)
(1.8213e-35 -8.62037e-36 0)
(2.13922e-34 -7.21314e-34 0)
(1.62763e-33 -2.23882e-32 0)
(1.53439e-32 -4.99865e-31 0)
(6.79376e-33 -7.48776e-30 0)
(-7.83108e-33 -5.01552e-31 0)
(1.06225e-31 -6.52392e-32 0)
(1.19631e-31 -4.61229e-33 0)
(9.18978e-33 -2.1906e-34 0)
(1.70194e-33 -7.83928e-36 0)
(1.43754e-34 -1.75686e-37 0)
(1.69071e-35 -3.09569e-41 0)
(1.35193e-36 4.19514e-40 0)
(1.24267e-37 3.59709e-41 0)
(9.13435e-39 2.69294e-42 0)
(7.10684e-40 1.69084e-43 0)
(4.79e-41 1.09765e-44 0)
(3.2845e-42 1.43284e-45 0)
(2.0395e-43 -1.9423e-46 0)
(1.25899e-44 -5.33685e-46 0)
(6.77314e-46 2.38223e-46 0)
(5.21318e-47 3.07174e-46 0)
(1.93123e-47 4.52652e-47 0)
(2.67286e-48 7.85721e-48 0)
(4.52901e-49 8.37856e-49 0)
(4.82426e-50 9.25762e-50 0)
(5.32043e-51 8.0596e-51 0)
(4.63805e-52 6.96025e-52 0)
(4.00336e-53 5.20789e-53 0)
(3.38704e-54 3.55012e-54 0)
(7.17149e-54 -3.5817e-54 0)
(1.28223e-52 -5.26547e-53 0)
(2.36622e-51 -7.07196e-52 0)
(4.53575e-50 -8.27292e-51 0)
(8.60079e-49 -9.67142e-50 0)
(1.65195e-47 -9.16298e-49 0)
(3.07045e-46 -9.3575e-48 0)
(5.65625e-45 -7.28953e-47 0)
(9.90353e-44 -8.15723e-46 0)
(1.70671e-42 -9.09167e-45 0)
(2.74849e-41 -1.52841e-43 0)
(4.38174e-40 -2.45359e-42 0)
(6.37247e-39 -3.89108e-41 0)
(9.33694e-38 -5.29702e-40 0)
(1.19717e-36 -6.28251e-39 0)
(1.60233e-35 -1.02355e-38 0)
(1.7295e-34 2.2373e-36 0)
(2.089e-33 1.03836e-34 0)
(1.6363e-32 2.95812e-33 0)
(1.63743e-31 6.30638e-32 0)
(1.20986e-31 9.14384e-31 0)
(-3.35749e-32 6.29879e-32 0)
(6.85117e-33 -6.4259e-32 0)
(6.07454e-33 -3.51516e-33 0)
(6.65202e-34 9.61804e-34 0)
(1.29587e-34 1.07862e-34 0)
(1.24752e-35 1.45075e-35 0)
(1.51658e-36 1.19335e-36 0)
(1.29338e-37 1.10644e-37 0)
(1.21586e-38 8.1408e-39 0)
(9.28041e-40 6.32897e-40 0)
(7.3401e-41 4.26133e-41 0)
(5.07082e-42 2.91906e-42 0)
(3.52146e-43 1.81076e-43 0)
(2.22471e-44 1.11833e-44 0)
(1.38941e-45 6.15884e-46 0)
(7.87481e-47 4.86467e-47 0)
(5.14983e-48 1.76906e-47 0)
(1.05721e-48 2.43743e-48 0)
(1.34858e-49 4.10767e-49 0)