/*--------------------------------*- C++ -*----------------------------------*\
| =========                 |                                                 |
| \\      /  F ield         | OpenFOAM: The Open Source CFD Toolbox           |
|  \\    /   O peration     | Version:  2.4.0                                 |
|   \\  /    A nd           | Web:      www.OpenFOAM.org                      |
|    \\/     M anipulation  |                                                 |
\*---------------------------------------------------------------------------*/
FoamFile
{
    version     2.0;
    format      ascii;
    class       volVectorField;
    location    "0.3";
    object      U;
}
// * * * * * * * * * * * * * * * * * * * * * * * * * * * * * * * * * * * * * //

dimensions      [0 1 -1 0 0 0 0];

internalField   nonuniform List<vector> 
1935
(
(1.29382e-35 1.82023e-40 0)
(9.84719e-37 -7.04002e-37 0)
(1.38841e-37 -6.132e-38 0)
(1.53783e-38 -1.18288e-37 0)
(-7.09263e-38 -1.49233e-36 0)
(-1.22704e-35 -2.80232e-35 0)
(-5.8927e-34 -2.78602e-34 0)
(-2.06677e-32 -4.89532e-33 0)
(-4.79293e-31 -1.48872e-32 0)
(-2.02811e-32 -2.78085e-31 0)
(6.14414e-33 -1.504e-30 0)
(-5.42363e-34 -3.54114e-29 0)
(-1.36959e-32 7.19121e-31 0)
(-2.60685e-34 3.61654e-29 0)
(6.88022e-33 1.54495e-30 0)
(3.95587e-34 2.89194e-31 0)
(-2.704e-36 3.04931e-32 0)
(-3.96558e-34 3.07081e-31 0)
(-7.26744e-33 1.38741e-30 0)
(9.00857e-33 3.87645e-29 0)
(2.37045e-32 -4.44295e-29 0)
(-8.06529e-33 -8.50398e-29 0)
(-2.40992e-32 -2.41764e-30 0)
(8.57761e-33 4.06981e-29 0)
(2.47206e-32 -4.69942e-29 0)
(-1.68776e-32 -8.90218e-29 0)
(-1.73074e-32 4.18916e-29 0)
(6.80324e-33 5.54343e-31 0)
(-2.87269e-32 5.70195e-31 0)
(-6.78405e-31 -2.7052e-30 0)
(-2.97774e-32 -4.81616e-29 0)
(-9.99136e-33 -2.05965e-30 0)
(-5.46009e-34 -3.81977e-31 0)
(-5.45828e-35 -2.03587e-32 0)
(1.07151e-37 -4.34499e-33 0)
(5.77193e-35 -2.02332e-32 0)
(5.25883e-34 -4.02744e-31 0)
(9.58153e-33 -1.83161e-30 0)
(-1.17857e-32 -5.10996e-29 0)
(-3.12139e-32 5.81091e-29 0)
(9.98301e-33 1.12029e-28 0)
(2.14399e-32 5.1224e-30 0)
(1.19494e-33 9.43146e-31 0)
(1.57324e-34 -1.94985e-40 0)
(2.26989e-33 -2.13825e-40 0)
(2.01521e-32 -2.46055e-41 0)
(2.8292e-31 -4.20121e-42 0)
(1.18243e-35 -1.13944e-35 0)
(1.60109e-34 -1.32528e-34 0)
(1.39811e-33 -1.88827e-33 0)
(1.73195e-32 -1.57467e-32 0)
(1.56545e-36 -8.64509e-37 0)
(2.01146e-35 -9.96425e-36 0)
(1.50708e-34 -1.32993e-34 0)
(1.64309e-33 -1.08377e-33 0)
(1.06056e-37 -2.9743e-38 0)
(1.20072e-36 -1.2276e-36 0)
(8.6192e-36 -1.70093e-35 0)
(8.5081e-35 -1.24639e-34 0)
(-3.91974e-38 1.18766e-36 0)
(-2.82766e-38 1.25455e-36 0)
(5.46807e-37 -8.81331e-37 0)
(6.31519e-36 -7.25268e-36 0)
(-1.17903e-35 2.21903e-35 0)
(-2.7556e-36 2.46969e-35 0)
(-1.60513e-36 2.39542e-36 0)
(1.50247e-37 -2.37103e-37 0)
(-5.77141e-34 1.98094e-34 0)
(-8.22521e-35 2.22733e-34 0)
(-3.18519e-35 2.17393e-35 0)
(-2.98242e-36 2.59616e-36 0)
(-2.04237e-32 3.38256e-33 0)
(-1.88549e-33 3.76284e-33 0)
(-3.40332e-34 3.16255e-34 0)
(-2.82457e-35 3.72424e-35 0)
(-4.75006e-31 -1.37497e-33 0)
(-3.14823e-32 -1.64587e-34 0)
(-5.55001e-33 -1.21168e-35 0)
(-4.07129e-34 -1.04784e-36 0)
(-4.90517e-33 -2.62149e-32 0)
(-4.17051e-34 -6.26097e-33 0)
(-1.55556e-34 -4.83972e-34 0)
(-1.44057e-35 -5.12647e-35 0)
(2.66245e-31 -1.19879e-31 0)
(2.14608e-32 -5.7652e-33 0)
(2.61918e-33 -2.03658e-34 0)
(1.8258e-34 -6.18947e-36 0)
(-2.12483e-32 -1.98763e-30 0)
(-1.94255e-33 -7.74294e-32 0)
(-2.45113e-34 -2.23317e-33 0)
(-1.81806e-35 -3.06829e-35 0)
(-5.43014e-31 4.12062e-32 0)
(-4.3907e-32 1.65533e-33 0)
(-5.41007e-33 5.01065e-35 0)
(-3.79161e-34 9.38505e-37 0)
(-1.05512e-32 2.0316e-30 0)
(-1.07159e-33 7.92208e-32 0)
(-1.36419e-34 2.28799e-33 0)
(-1.04893e-35 3.16712e-35 0)
(2.72654e-31 1.22937e-31 0)
(2.20236e-32 5.75349e-33 0)
(2.71046e-33 1.92454e-34 0)
(1.89787e-34 4.22039e-36 0)
(1.58861e-32 2.33419e-32 0)
(1.50333e-33 2.55483e-33 0)
(1.89281e-34 1.71581e-34 0)
(1.41815e-35 1.43458e-35 0)
(-1.11972e-34 2.81393e-33 0)
(-9.86383e-36 3.33184e-34 0)
(-1.33112e-36 2.4421e-35 0)
(-9.65218e-38 2.09948e-36 0)
(-1.57755e-32 2.45455e-32 0)
(-1.48879e-33 2.6627e-33 0)
(-1.83876e-34 1.77208e-34 0)
(-1.36782e-35 1.47524e-35 0)
(-2.87564e-31 1.09781e-31 0)
(-2.29286e-32 3.2759e-33 0)
(-2.81237e-33 -9.15485e-37 0)
(-1.95552e-34 -1.35618e-35 0)
(3.57666e-31 2.12566e-30 0)
(2.94305e-32 7.97099e-32 0)
(3.63627e-33 2.14903e-33 0)
(2.57003e-34 1.30176e-35 0)
(9.39683e-31 -2.54535e-30 0)
(7.59509e-32 -1.02216e-31 0)
(9.35463e-33 -3.09297e-33 0)
(6.55399e-34 -5.8154e-35 0)
(-3.19593e-31 -4.81856e-30 0)
(-2.58195e-32 -1.89113e-31 0)
(-3.17703e-33 -5.5016e-33 0)
(-2.22451e-34 -7.91124e-35 0)
(-9.54985e-31 -1.93599e-31 0)
(-7.71063e-32 -1.27863e-32 0)
(-9.48882e-33 -6.48691e-34 0)
(-6.64272e-34 -4.13069e-35 0)
(3.39793e-31 2.21465e-30 0)
(2.74449e-32 7.92037e-32 0)
(3.37458e-33 1.90039e-33 0)
(2.36198e-34 -1.89416e-35 0)
(9.79518e-31 -2.68564e-30 0)
(7.88555e-32 -1.06208e-31 0)
(9.70273e-33 -3.1209e-33 0)
(6.78348e-34 -4.76438e-35 0)
(-6.68914e-31 -5.00718e-30 0)
(-5.38193e-32 -1.97217e-31 0)
(-6.62658e-33 -5.81495e-33 0)
(-4.63301e-34 -9.51811e-35 0)
(-6.85617e-31 2.26268e-30 0)
(-5.5686e-32 8.58059e-32 0)
(-6.86454e-33 2.41013e-33 0)
(-4.82115e-34 2.93259e-35 0)
(3.01914e-31 5.9403e-32 0)
(2.38232e-32 -4.04349e-34 0)
(2.89382e-33 -2.1021e-34 0)
(1.99433e-34 -2.86659e-35 0)
(7.59906e-33 3.42637e-32 0)
(7.82353e-34 6.16575e-33 0)
(-5.56613e-35 4.52546e-34 0)
(-8.27207e-36 5.06787e-35 0)
(-3.14757e-31 -1.99296e-31 0)
(-1.55275e-32 -9.08094e-33 0)
(-4.31168e-33 -3.00358e-34 0)
(-3.28326e-34 -6.66349e-36 0)
(-3.42546e-32 -2.71959e-30 0)
(-3.10261e-33 -1.13356e-31 0)
(-5.37325e-34 -3.69664e-33 0)
(-4.39551e-35 -1.13634e-34 0)
(-3.63447e-31 -1.64456e-31 0)
(-2.94424e-32 -8.12543e-33 0)
(-3.65891e-33 -3.0045e-34 0)
(-2.57549e-34 -1.0635e-35 0)
(-2.12595e-32 -3.08635e-32 0)
(-2.01637e-33 -3.40959e-33 0)
(-2.56266e-34 -2.30145e-34 0)
(-1.92943e-35 -1.94236e-35 0)
(-2.34179e-33 -1.88407e-33 0)
(-2.25269e-34 -2.27977e-34 0)
(-3.2202e-35 -1.68796e-35 0)
(-2.51494e-36 -1.47323e-36 0)
(3.76362e-36 -4.04495e-34 0)
(3.64942e-37 -5.67581e-35 0)
(3.47933e-38 -4.41045e-36 0)
(2.21308e-39 -4.0944e-37 0)
(2.47469e-33 -1.86636e-33 0)
(2.36621e-34 -2.18776e-34 0)
(3.35611e-35 -1.5974e-35 0)
(2.60537e-36 -1.36591e-36 0)
(2.09348e-32 -3.21665e-32 0)
(1.97686e-33 -3.48347e-33 0)
(2.44503e-34 -2.31542e-34 0)
(1.82031e-35 -1.92561e-35 0)
(3.79134e-31 -1.44932e-31 0)
(3.02331e-32 -4.34592e-33 0)
(3.70843e-33 -7.23945e-37 0)
(2.57873e-34 1.77116e-35 0)
(-4.67943e-31 -2.80252e-30 0)
(-3.85098e-32 -1.05104e-31 0)
(-4.75843e-33 -2.83384e-33 0)
(-3.36347e-34 -1.7163e-35 0)
(-1.23757e-30 3.3298e-30 0)
(-1.00067e-31 1.33869e-31 0)
(-1.23297e-32 4.06057e-33 0)
(-8.64107e-34 7.74654e-35 0)
(3.95475e-31 6.35756e-30 0)
(3.16445e-32 2.5186e-31 0)
(3.89237e-33 7.46473e-33 0)
(2.71377e-34 1.24196e-34 0)
(8.50142e-31 4.08435e-31 0)
(6.90354e-32 2.14428e-32 0)
(8.50866e-33 8.55466e-34 0)
(5.97481e-34 3.56902e-35 0)
(4.76998e-32 7.68835e-32 0)
(4.53484e-33 8.10198e-33 0)
(5.72922e-34 5.35963e-34 0)
(4.31265e-35 4.40323e-35 0)
(1.57415e-30 -5.47647e-42 0)
(2.90594e-29 -4.50798e-42 0)
(2.77458e-29 1.01297e-41 0)
(-2.77278e-29 1.0076e-41 0)
(-2.87929e-29 -4.88991e-42 0)
(1.62375e-32 -1.04392e-41 0)
(2.90609e-29 -5.28822e-42 0)
(2.93094e-29 4.84545e-42 0)
(1.57982e-30 5.24471e-42 0)
(2.66234e-31 3.99624e-43 0)
(1.6229e-32 4.99106e-44 0)
(1.65114e-33 3.01038e-45 0)
(-9.12967e-35 -3.80515e-45 0)
(-3.22598e-33 -8.49203e-44 0)
(-3.08003e-32 -1.78406e-42 0)
(-5.16329e-31 -3.13545e-41 0)
(-2.89497e-30 -5.36024e-40 0)
(-5.70534e-29 -3.40396e-39 0)
(-2.90592e-29 1.76538e-37 0)
(2.77442e-29 1.43302e-35 0)
(3.03759e-29 5.96288e-34 0)
(2.95731e-29 1.85116e-32 0)
(1.86072e-30 3.86929e-31 0)
(1.85189e-30 1.85117e-32 0)
(2.9342e-29 6.10442e-34 0)
(2.93271e-29 5.96288e-34 0)
(1.57915e-30 1.79154e-32 0)
(2.68959e-31 3.68418e-31 0)
(1.90389e-32 -3.68418e-31 0)
(2.56031e-33 -1.79151e-32 0)
(3.23593e-32 -5.67268e-34 0)
(5.31344e-31 5.97111e-34 0)
(3.15253e-30 1.89766e-32 0)
(5.84139e-29 3.96664e-31 0)
(5.7567e-29 1.95729e-32 0)
(-2.35351e-29 1.91226e-32 0)
(2.66953e-29 3.8693e-31 0)
(-1.54734e-30 1.79289e-32 0)
(-5.57395e-29 -1.73428e-32 0)
(-2.85992e-30 -3.68472e-31 0)
(9.4465e-32 -2.07925e-31 0)
(1.25207e-30 -1.82393e-31 0)
(1.17337e-30 4.06138e-31 0)
(-1.17212e-30 4.04678e-31 0)
(-1.23577e-30 -1.96709e-31 0)
(1.12707e-33 -4.17489e-31 0)
(1.25217e-30 -2.10894e-31 0)
(1.26723e-30 1.95164e-31 0)
(9.49791e-32 2.09428e-31 0)
(1.62832e-32 1.42704e-32 0)
(1.12642e-33 1.55205e-33 0)
(1.16061e-34 9.38466e-35 0)
(-6.8497e-36 2.13917e-35 0)
(-2.26408e-34 1.7929e-34 0)
(-2.13628e-33 3.01133e-33 0)
(-3.14467e-32 2.69955e-32 0)
(-1.73784e-31 4.04671e-31 0)
(-2.44047e-30 1.82346e-31 0)
(-1.25206e-30 -6.04406e-31 0)
(1.17324e-30 -4.31858e-31 0)
(1.3308e-30 -1.57766e-32 0)
(1.28075e-30 2.07586e-31 0)
(1.12279e-31 2.15474e-31 0)
(1.14244e-31 -1.93908e-31 0)
(1.26964e-30 -1.95088e-31 0)
(1.26832e-30 1.96863e-31 0)
(9.25295e-32 2.10724e-31 0)
(1.90486e-32 3.1886e-32 0)
(3.89802e-33 -1.60709e-32 0)
(-2.22496e-33 -1.28828e-33 0)
(2.07489e-33 -3.13436e-33 0)
(3.22848e-32 -2.78663e-32 0)
(1.86613e-31 -3.98684e-31 0)
(2.5224e-30 1.45922e-32 0)
(2.47441e-30 5.96526e-31 0)
(-9.23126e-31 2.27132e-31 0)
(1.11077e-30 -1.23649e-31 0)
(-9.00026e-32 5.81646e-31 0)
(-2.35921e-30 1.25999e-32 0)
(-1.74019e-31 -3.7139e-31 0)
(4.13326e-33 -1.23275e-32 0)
(3.49905e-32 -1.05716e-32 0)
(3.2378e-32 2.39909e-32 0)
(-3.22413e-32 2.38887e-32 0)
(-3.34199e-32 -1.15582e-32 0)
(1.21435e-34 -2.47702e-32 0)
(3.50027e-32 -1.25353e-32 0)
(3.64355e-32 1.14496e-32 0)
(4.17847e-33 1.24327e-32 0)
(1.56706e-33 9.83514e-34 0)
(1.21343e-34 1.09065e-34 0)
(1.46571e-35 7.05808e-36 0)
(-9.01805e-37 1.62468e-36 0)
(-2.85717e-35 1.3474e-35 0)
(-2.27961e-34 2.11158e-34 0)
(-3.01365e-33 1.85848e-33 0)
(-6.80356e-33 2.38882e-32 0)
(-6.87972e-32 1.05677e-32 0)
(-3.49879e-32 -3.56586e-32 0)
(3.23622e-32 -2.57601e-32 0)
(3.76149e-32 -1.07239e-33 0)
(3.78326e-32 1.24255e-32 0)
(5.85303e-33 1.46665e-32 0)
(5.94391e-33 -1.12391e-32 0)
(3.66897e-32 -1.14262e-32 0)
(3.65609e-32 1.15865e-32 0)
(4.03738e-33 1.26295e-32 0)
(1.73818e-33 3.88933e-33 0)
(2.93202e-34 -2.79729e-33 0)
(-1.1379e-34 -1.96075e-34 0)
(2.10297e-34 -2.34935e-34 0)
(2.93593e-33 -1.90148e-33 0)
(5.46707e-33 -2.34955e-32 0)
(7.17555e-32 -2.99661e-33 0)
(7.46243e-32 3.51149e-32 0)
(-2.29033e-32 1.37985e-32 0)
(3.13271e-32 -4.70978e-33 0)
(-3.79544e-33 3.42043e-32 0)
(-6.62771e-32 7.8811e-34 0)
(-9.30417e-33 -2.32784e-32 0)
(1.38954e-34 -1.36363e-33 0)
(6.9593e-34 -1.16751e-33 0)
(6.35802e-34 2.65829e-33 0)
(-6.27924e-34 2.64521e-33 0)
(-6.14091e-34 -1.28008e-33 0)
(6.95801e-36 -2.74425e-33 0)
(6.96641e-34 -1.39134e-33 0)
(7.70517e-34 1.26616e-33 0)
(1.41646e-34 1.3782e-33 0)
(8.15993e-35 1.1211e-34 0)
(6.95214e-36 1.39984e-35 0)
(8.78473e-37 9.41315e-37 0)
(-5.66501e-38 2.28987e-37 0)
(-1.71049e-36 1.79183e-36 0)
(-1.30214e-35 2.70678e-35 0)
(-1.56302e-34 2.10295e-34 0)
(-2.02509e-34 2.64513e-33 0)
(-1.40534e-33 1.16704e-33 0)
(-6.95758e-34 -3.95243e-33 0)
(6.3476e-34 -2.85728e-33 0)
(7.56123e-34 -1.24766e-34 0)
(8.34261e-34 1.36359e-33 0)
(2.2937e-34 1.45255e-33 0)
(2.428e-34 -1.25283e-33 0)
(7.85637e-34 -1.26443e-33 0)
(7.77288e-34 1.28252e-33 0)
(1.26136e-34 1.39104e-33 0)
(9.95321e-35 2.7233e-34 0)
(2.49287e-35 -1.46294e-34 0)
(-1.39052e-35 -1.26632e-35 0)
(1.1153e-35 -2.80219e-35 0)
(1.49077e-34 -2.01844e-34 0)
(1.05565e-34 -2.53016e-33 0)
(1.48512e-33 7.2005e-34 0)
(1.73448e-33 3.96021e-33 0)
(-3.75167e-34 1.53961e-33 0)
(6.5732e-34 -6.82872e-34 0)
(-1.11432e-34 3.78247e-33 0)
(-1.34655e-33 1.07212e-34 0)
(-3.87546e-34 -2.41645e-33 0)
(6.38373e-36 -7.39046e-35 0)
(2.62707e-37 -6.25442e-35 0)
(-2.47108e-37 1.439e-34 0)
(8.60348e-37 1.43115e-34 0)
(5.85156e-36 -6.91048e-35 0)
(5.37428e-37 -1.48863e-34 0)
(3.18605e-37 -7.55833e-35 0)
(5.8104e-36 6.82667e-35 0)
(6.59282e-36 7.47946e-35 0)
(6.09193e-36 6.53233e-36 0)
(5.36923e-37 8.42879e-37 0)
(7.21536e-38 5.93564e-38 0)
(-4.73287e-39 1.46706e-38 0)
(-1.40451e-37 1.12869e-37 0)
(-1.00132e-36 1.62721e-36 0)
(-1.16516e-35 1.22265e-35 0)
(-7.1607e-36 1.4311e-34 0)
(-5.48247e-36 6.25135e-35 0)
(-2.45871e-37 -2.13851e-34 0)
(-3.28904e-37 -1.55448e-34 0)
(8.04961e-37 -7.2089e-36 0)
(1.09173e-35 7.4456e-35 0)
(1.31538e-35 8.63311e-35 0)
(1.38095e-35 -6.69227e-35 0)
(6.9558e-36 -6.80705e-35 0)
(6.35672e-36 6.93401e-35 0)
(5.76844e-36 7.60261e-35 0)
(7.08345e-36 2.24834e-35 0)
(1.53174e-36 -1.51127e-35 0)
(-6.96633e-37 -1.21793e-36 0)
(8.16014e-37 -1.7459e-36 0)
(1.06988e-35 -1.15005e-35 0)
(-5.3757e-36 -1.35308e-34 0)
(7.50556e-36 4.46024e-35 0)
(3.53606e-35 2.15513e-34 0)
(8.56129e-36 8.50571e-35 0)
(5.39519e-36 -2.71501e-35 0)
(-4.70974e-36 2.04534e-34 0)
(-5.64054e-36 6.05388e-36 0)
(-2.26653e-35 -1.3648e-34 0)
(2.4849e-37 -5.66757e-36 0)
(-6.11062e-37 -4.81027e-36 0)
(-5.82614e-37 1.10931e-35 0)
(6.15266e-37 1.10283e-35 0)
(9.20543e-37 -5.32569e-36 0)
(2.8658e-38 -1.14746e-35 0)
(-6.06492e-37 -5.83215e-36 0)
(-3.28771e-37 5.25659e-36 0)
(2.82249e-37 5.76718e-36 0)
(3.0978e-37 5.10971e-37 0)
(2.86294e-38 6.95054e-38 0)
(3.9297e-39 4.98231e-39 0)
(-2.65321e-40 1.26284e-39 0)
(-7.64376e-39 9.46076e-39 0)
(-5.33078e-38 1.34099e-37 0)
(-5.9119e-37 9.5284e-37 0)
(-2.58359e-37 1.10278e-35 0)
(9.15666e-37 4.80976e-36 0)
(6.10436e-37 -1.64884e-35 0)
(-5.87225e-37 -1.19903e-35 0)
(-6.3658e-37 -5.7056e-37 0)
(-9.30761e-38 5.70715e-36 0)
(6.16965e-37 6.26689e-36 0)
(6.73699e-37 -5.1779e-36 0)
(-2.66127e-37 -5.24434e-36 0)
(-3.00809e-37 5.34142e-36 0)
(2.18703e-37 5.84046e-36 0)
(3.84231e-37 1.37927e-36 0)
(1.03254e-37 -7.99154e-37 0)
(-5.67349e-38 -7.17809e-38 0)
(4.04615e-38 -1.36479e-37 0)
(5.31826e-37 -8.38629e-37 0)
(-4.58731e-37 -1.01066e-35 0)
(-8.62435e-37 7.45562e-36 0)
(6.79332e-37 1.69276e-35 0)
(8.35038e-37 6.60781e-36 0)
(-2.40877e-37 -2.45153e-36 0)
(-1.59535e-37 1.57492e-35 0)
(8.71979e-37 5.13746e-37 0)
(-1.11502e-36 -1.01618e-35 0)
(-3.51579e-37 -1.10156e-37 0)
(-7.78692e-38 -2.30964e-37 0)
(-5.17277e-38 5.69076e-37 0)
(5.16282e-38 5.64786e-37 0)
(7.20882e-38 -2.72343e-37 0)
(1.81261e-39 -5.88566e-37 0)
(-5.2445e-38 -2.99442e-37 0)
(-3.51041e-38 2.68578e-37 0)
(1.63719e-38 2.95904e-37 0)
(1.93742e-38 2.73482e-38 0)
(1.81115e-39 3.79158e-39 0)
(2.54872e-40 2.79866e-40 0)
(-1.73556e-41 7.16431e-41 0)
(-4.9568e-40 5.31057e-40 0)
(-3.36603e-39 7.30737e-39 0)
(-3.69541e-38 5.09277e-38 0)
(-1.36056e-38 5.6471e-37 0)
(8.50616e-38 2.4472e-37 0)
(5.27013e-38 -8.44407e-37 0)
(-4.99694e-38 -6.16157e-37 0)
(-5.55449e-38 -3.0324e-38 0)
(-1.95605e-38 2.94297e-37 0)
(3.73178e-38 3.43118e-37 0)
(4.00689e-38 -2.62616e-37 0)
(-3.11924e-38 -2.67613e-37 0)
(-3.32859e-38 2.73489e-37 0)
(1.31563e-38 3.01303e-37 0)
(2.32286e-38 9.24851e-38 0)
(5.67581e-39 -6.13652e-38 0)
(-2.78664e-39 -5.30299e-39 0)
(2.41399e-39 -7.58744e-39 0)
(3.21385e-38 -4.35242e-38 0)
(-4.40287e-38 -5.08445e-37 0)
(-8.29539e-38 4.46024e-37 0)
(2.75205e-38 8.75204e-37 0)
(6.35859e-38 3.44089e-37 0)
(-2.68495e-38 -9.81059e-38 0)
(-9.55504e-39 8.06612e-37 0)
(8.02042e-38 2.69367e-38 0)
(-6.66564e-38 -5.37266e-37 0)
(-2.92027e-36 2.39529e-36 0)
(-1.9443e-37 1.67008e-37 0)
(-1.72198e-38 4.60313e-38 0)
(1.75699e-39 3.6109e-38 0)
(3.56197e-39 -1.70617e-38 0)
(8.6638e-41 -3.69551e-38 0)
(-2.67306e-39 -1.8813e-38 0)
(-1.84257e-39 1.68514e-38 0)
(7.68274e-40 1.85836e-38 0)
(9.30922e-40 1.73359e-39 0)
(8.9533e-41 2.46194e-40 0)
(1.27232e-41 1.83441e-41 0)
(-8.82992e-43 4.75043e-42 0)
(-2.47319e-41 3.47852e-41 0)
(-1.66271e-40 4.74315e-40 0)
(-1.77317e-39 3.22251e-39 0)
(-6.17387e-40 3.54499e-38 0)
(4.3785e-39 1.53443e-38 0)
(2.68564e-39 -5.30233e-38 0)
(-2.53721e-39 -3.8707e-38 0)
(-2.8446e-39 -1.93547e-39 0)
(-1.14876e-39 1.84135e-38 0)
(1.77679e-39 2.07527e-38 0)
(1.96083e-39 -1.65302e-38 0)
(-1.64553e-39 -1.67978e-38 0)
(-1.75546e-39 1.71619e-38 0)
(5.66101e-40 1.88771e-38 0)
(1.16926e-39 5.09033e-39 0)
(3.28348e-40 -3.11178e-39 0)
(-1.81256e-40 -2.8607e-40 0)
(1.1058e-40 -4.71892e-40 0)
(1.50599e-39 -2.57224e-39 0)
(-2.43069e-39 -3.08829e-38 0)
(-4.28944e-39 3.99467e-38 0)
(1.30137e-39 5.59707e-38 0)
(3.12111e-39 2.17735e-38 0)
(-1.4006e-39 -6.87573e-39 0)
(-3.81122e-40 5.06003e-38 0)
(4.1718e-39 1.78325e-39 0)
(-3.26402e-39 -3.3005e-38 0)
(-4.14119e-35 -6.47602e-38 0)
(-2.55253e-36 -4.80021e-39 0)
(-1.93379e-37 1.49679e-39 0)
(-1.0838e-38 1.69142e-39 0)
(-5.00431e-40 -8.21376e-40 0)
(-3.16932e-41 -1.77806e-39 0)
(-1.48842e-40 -9.05701e-40 0)
(-1.02096e-40 8.08552e-40 0)
(4.12181e-41 8.94247e-40 0)
(5.02902e-41 8.57684e-41 0)
(4.87064e-42 1.22994e-41 0)
(6.99813e-43 9.3431e-43 0)
(-4.8824e-44 2.43189e-43 0)
(-1.36017e-42 1.77098e-42 0)
(-9.0375e-42 2.36785e-41 0)
(-9.57579e-41 1.59315e-40 0)
(-3.2802e-41 1.70356e-39 0)
(2.41154e-40 7.34076e-40 0)
(1.47512e-40 -2.54815e-39 0)
(-1.39209e-40 -1.86459e-39 0)
(-1.56264e-40 -9.51895e-41 0)
(-6.31567e-41 8.89743e-40 0)
(9.57275e-41 1.04749e-39 0)
(1.04312e-40 -7.88506e-40 0)
(-9.13656e-41 -8.05153e-40 0)
(-9.71798e-41 8.24745e-40 0)
(3.1583e-41 9.12257e-40 0)
(6.1807e-41 2.93538e-40 0)
(1.64107e-41 -1.95531e-40 0)
(-8.5238e-42 -1.75921e-41 0)
(5.61215e-42 -2.37779e-41 0)
(7.84974e-41 -1.22394e-40 0)
(-1.62796e-40 -1.45058e-39 0)
(-2.36523e-40 2.19036e-39 0)
(9.66838e-41 2.72179e-39 0)
(1.74181e-40 1.06123e-39 0)
(-7.70607e-41 -2.69054e-40 0)
(-2.17303e-41 2.43233e-39 0)
(2.2839e-40 8.67651e-41 0)
(-1.73794e-40 -1.62482e-39 0)
(-1.80286e-36 -3.2307e-36 0)
(-1.25472e-37 -2.33799e-37 0)
(-1.04499e-38 -1.29456e-38 0)
(-6.32247e-40 -7.14728e-40 0)
(-3.3968e-41 -8.59964e-41 0)
(-2.13589e-42 -9.83888e-41 0)
(-6.75367e-42 -4.9085e-41 0)
(-4.61575e-42 4.36765e-41 0)
(1.84192e-42 4.8346e-41 0)
(2.25995e-42 4.66846e-42 0)
(2.23196e-43 6.7686e-43 0)
(3.22008e-44 5.17094e-44 0)
(-2.2762e-45 1.35226e-44 0)
(-6.25628e-44 9.7987e-44 0)
(-4.14006e-43 1.30279e-42 0)
(-4.29896e-42 8.66439e-42 0)
(-1.45428e-42 9.207e-41 0)
(1.08741e-41 3.96345e-41 0)
(6.65001e-42 -1.37735e-40 0)
(-6.2689e-42 -1.0083e-40 0)
(-7.0615e-42 -5.20188e-42 0)
(-2.9623e-42 4.7991e-41 0)
(4.29523e-42 5.53019e-41 0)
(4.77753e-42 -4.26862e-41 0)
(-4.11461e-42 -4.35104e-41 0)
(-4.39363e-42 4.45584e-41 0)
(1.32051e-42 4.92451e-41 0)
(2.87645e-42 1.46809e-41 0)
(8.40668e-43 -9.33876e-42 0)
(-4.7173e-43 -8.72569e-43 0)
(2.36106e-43 -1.26099e-42 0)
(3.42481e-42 -6.19385e-42 0)
(-8.15153e-42 -7.56756e-41 0)
(-1.06656e-41 1.48166e-40 0)
(5.10795e-42 1.49801e-40 0)
(7.81257e-42 5.78147e-41 0)
(-3.44696e-42 -1.56918e-41 0)
(-8.54636e-43 1.31379e-40 0)
(1.03769e-41 4.84091e-42 0)
(-7.96133e-42 -8.66084e-41 0)
(1.44536e-35 -1.57179e-37 0)
(8.19693e-37 -6.63771e-39 0)
(5.16858e-38 -3.47273e-40 0)
(2.69422e-39 -2.0942e-41 0)
(1.48937e-40 -3.44371e-42 0)
(7.1598e-42 -4.41029e-42 0)
(3.5326e-44 -2.20738e-42 0)
(-2.05698e-43 1.95969e-42 0)
(8.8977e-44 2.17375e-42 0)
(1.08469e-43 2.14011e-43 0)
(1.07682e-44 3.11594e-44 0)
(1.55994e-45 2.41207e-45 0)
(-1.10663e-46 6.31916e-46 0)
(-3.03041e-45 4.56994e-45 0)
(-1.9965e-44 5.99438e-44 0)
(-2.0622e-43 3.97064e-43 0)
(-6.95344e-44 4.13565e-42 0)
(5.22243e-43 1.77449e-42 0)
(3.19355e-43 -6.18686e-42 0)
(-3.00932e-43 -4.5371e-42 0)
(-3.39084e-43 -2.37272e-43 0)
(-1.40644e-43 2.16526e-42 0)
(2.06012e-43 2.57804e-42 0)
(2.27321e-43 -1.90624e-42 0)
(-1.97737e-43 -1.95065e-42 0)
(-2.10987e-43 2.00162e-42 0)
(6.49506e-44 2.22173e-42 0)
(1.36204e-43 7.50298e-43 0)
(3.85726e-44 -5.05267e-43 0)
(-2.09704e-44 -4.66415e-44 0)
(1.04677e-44 -5.80948e-44 0)
(1.58039e-43 -2.70556e-43 0)
(-4.56971e-43 -3.30549e-42 0)
(-5.12197e-43 7.45485e-42 0)
(3.1026e-43 6.82007e-42 0)
(3.82789e-43 2.62944e-42 0)
(-1.64379e-43 -5.90648e-43 0)
(-4.27091e-44 5.90305e-42 0)
(4.96507e-43 2.18752e-43 0)
(-3.78997e-43 -3.96361e-42 0)
(-1.47571e-36 1.04772e-36 0)
(-8.71823e-38 1.31807e-37 0)
(-5.62078e-39 7.74411e-39 0)
(-3.02232e-40 4.43197e-40 0)
(-1.69889e-41 2.14802e-41 0)
(-8.39781e-43 8.66507e-43 0)
(-5.56615e-44 -5.75159e-44 0)
(-1.12429e-44 9.62038e-44 0)
(3.60698e-45 1.0443e-43 0)
(4.55165e-45 1.03307e-44 0)
(4.58617e-46 1.51005e-45 0)
(6.65029e-47 1.17316e-46 0)
(-4.76272e-48 3.07585e-47 0)
(-1.29171e-46 2.22244e-46 0)
(-8.50655e-46 2.90429e-45 0)
(-8.6567e-45 1.91537e-44 0)
(-2.8971e-45 1.98455e-43 0)
(2.19317e-44 8.50779e-44 0)
(1.34146e-44 -2.96899e-43 0)
(-1.26317e-44 -2.17823e-43 0)
(-1.42694e-44 -1.14737e-44 0)
(-6.07082e-45 1.03792e-43 0)
(8.64748e-45 1.21958e-43 0)
(9.69603e-45 -9.15544e-44 0)
(-8.28603e-45 -9.35915e-44 0)
(-8.8716e-45 9.60219e-44 0)
(2.57546e-45 1.06549e-43 0)
(5.87916e-45 3.4434e-44 0)
(1.78408e-45 -2.26036e-44 0)
(-1.02302e-45 -2.13797e-45 0)
(4.03307e-46 -2.72236e-45 0)
(6.41157e-45 -1.20672e-44 0)
(-2.11173e-44 -1.52605e-43 0)
(-2.15064e-44 4.21084e-43 0)
(1.49117e-44 3.33232e-43 0)
(1.6101e-44 1.27197e-43 0)
(-6.84298e-45 -2.97813e-44 0)
(-1.60261e-45 2.83131e-43 0)
(2.09778e-44 1.07056e-44 0)
(-1.61716e-44 -1.88573e-43 0)
(-3.03059e-35 -4.97858e-39 0)
(-1.72904e-36 -1.7355e-39 0)
(-1.10033e-37 -1.1032e-40 0)
(-5.77238e-39 -6.50523e-42 0)
(-3.21075e-40 -3.26677e-43 0)
(-1.55641e-41 -2.5044e-44 0)
(-7.76172e-43 -5.1883e-45 0)
(-3.53063e-44 3.91071e-45 0)
(-1.42346e-45 4.38319e-45 0)
(1.31499e-46 4.40069e-46 0)
(1.7245e-47 6.4395e-47 0)
(2.79445e-48 5.04932e-48 0)
(-2.12694e-49 1.32322e-48 0)
(-5.63892e-48 9.56585e-48 0)
(-3.71267e-47 1.23823e-46 0)
(-3.76099e-46 8.16285e-46 0)
(-1.25576e-46 8.33363e-45 0)
(9.52953e-46 3.56373e-45 0)
(5.82923e-46 -1.24671e-44 0)
(-5.4873e-46 -9.15899e-45 0)
(-6.20113e-46 -4.86923e-46 0)
(-2.61995e-46 4.37446e-45 0)
(3.75693e-46 5.271e-45 0)
(4.19329e-46 -3.82654e-45 0)
(-3.60049e-46 -3.92429e-45 0)
(-3.8542e-46 4.0324e-45 0)
(1.1355e-46 4.48995e-45 0)
(2.53604e-46 1.58983e-45 0)
(7.5724e-47 -1.08555e-45 0)
(-4.27852e-47 -1.02e-46 0)
(1.58374e-47 -1.15473e-46 0)
(2.66746e-46 -4.84613e-46 0)
(-1.03828e-45 -6.19689e-45 0)
(-9.34372e-46 1.95347e-44 0)
(7.68366e-46 1.42005e-44 0)
(7.12811e-46 5.40189e-45 0)
(-2.95119e-46 -1.06907e-45 0)
(-7.12321e-47 1.18923e-44 0)
(9.09514e-46 4.50455e-46 0)
(-6.99711e-46 -8.03656e-45 0)
(-8.52392e-37 -1.05844e-36 0)
(-5.12431e-38 -1.34427e-37 0)
(-3.30217e-39 -7.9165e-39 0)
(-1.79247e-40 -4.5414e-40 0)
(-1.00735e-41 -2.2165e-41 0)
(-5.00242e-43 -1.1066e-42 0)
(-2.51709e-44 -4.99829e-44 0)
(-1.16817e-45 -2.08795e-45 0)
(-4.63983e-47 9.57885e-47 0)
(5.54632e-48 1.52507e-47 0)
(7.01869e-49 2.65623e-48 0)
(1.11519e-49 2.14962e-49 0)
(-8.47713e-51 5.76011e-50 0)
(-2.23807e-49 4.18714e-49 0)
(-1.47657e-48 5.40616e-48 0)
(-1.4789e-47 3.56329e-47 0)
(-4.90933e-48 3.6214e-46 0)
(3.74764e-47 1.54743e-46 0)
(2.29295e-47 -5.41756e-46 0)
(-2.15725e-47 -3.98171e-46 0)
(-2.44289e-47 -2.12748e-47 0)
(-1.05289e-47 1.90017e-46 0)
(1.47728e-47 2.27229e-46 0)
(1.67014e-47 -1.66331e-46 0)
(-1.41335e-47 -1.70501e-46 0)
(-1.51729e-47 1.75185e-46 0)
(4.25707e-48 1.95078e-46 0)
(1.01956e-47 6.74752e-47 0)
(3.20514e-48 -4.54604e-47 0)
(-1.88162e-48 -4.34235e-48 0)
(5.5574e-49 -4.88473e-48 0)
(1.0072e-47 -1.93695e-47 0)
(-4.45113e-47 -2.5793e-46 0)
(-3.67408e-47 9.65126e-46 0)
(3.38413e-47 6.28343e-46 0)
(2.81811e-47 2.36654e-46 0)
(-1.15074e-47 -4.77438e-47 0)
(-2.53608e-48 5.16589e-46 0)
(3.59463e-47 1.98101e-47 0)
(-2.7883e-47 -3.47509e-46 0)
(1.51576e-35 9.55366e-39 0)
(8.64253e-37 -5.23236e-39 0)
(5.4975e-38 -3.6349e-40 0)
(2.88282e-39 -2.17063e-41 0)
(1.60307e-40 -1.08955e-42 0)
(7.76873e-42 -5.49057e-44 0)
(3.87067e-43 -2.51817e-45 0)
(1.74143e-44 -1.07961e-46 0)
(7.90491e-46 2.62855e-48 0)
(3.34656e-47 5.59287e-49 0)
(1.41798e-48 1.03522e-49 0)
(5.90535e-50 8.51416e-51 0)
(1.78167e-51 2.29373e-51 0)
(-8.86128e-51 1.67333e-50 0)
(-5.91237e-50 2.14601e-49 0)
(-5.89805e-49 1.41738e-48 0)
(-1.95375e-49 1.42435e-47 0)
(1.4946e-48 6.07442e-48 0)
(9.14543e-49 -2.13068e-47 0)
(-8.60181e-49 -1.56765e-47 0)
(-9.7455e-49 -8.4302e-49 0)
(-4.18678e-49 7.49674e-48 0)
(5.89154e-49 9.1445e-48 0)
(6.64656e-49 -6.51671e-48 0)
(-5.63575e-49 -6.69824e-48 0)
(-6.05124e-49 6.89046e-48 0)
(1.70897e-49 7.6948e-48 0)
(4.05366e-49 2.852e-48 0)
(1.26618e-49 -1.97658e-48 0)
(-7.39698e-50 -1.8818e-49 0)
(1.93649e-50 -1.91866e-49 0)
(3.82349e-49 -7.15554e-49 0)
(-1.96823e-48 -9.74745e-48 0)
(-1.46514e-48 4.14955e-47 0)
(1.54227e-48 2.5105e-47 0)
(1.14388e-48 9.40602e-48 0)
(-4.55445e-49 -1.62666e-48 0)
(-1.019e-49 2.03222e-47 0)
(1.43204e-48 7.78621e-49 0)
(-1.1102e-48 -1.3833e-47 0)
(1.14608e-36 8.36177e-37 0)
(6.79491e-38 5.26048e-38 0)
(4.36225e-39 2.75047e-39 0)
(2.34737e-40 1.52782e-40 0)
(1.31546e-41 7.40135e-42 0)
(6.49369e-43 3.68671e-43 0)
(3.25716e-44 1.65844e-44 0)
(1.48594e-45 7.52721e-46 0)
(6.78395e-47 3.18651e-47 0)
(2.88846e-48 1.3501e-48 0)
(1.22109e-49 5.62885e-50 0)
(4.9629e-51 2.36641e-51 0)
(1.74618e-52 1.66247e-52 0)
(-3.2482e-52 6.72328e-52 0)
(-2.20254e-51 8.57278e-51 0)
(-2.1779e-50 5.67622e-50 0)
(-7.18067e-51 5.68123e-49 0)
(5.5191e-50 2.42117e-49 0)
(3.37776e-50 -8.49813e-49 0)
(-3.17556e-50 -6.25513e-49 0)
(-3.60393e-50 -3.37559e-50 0)
(-1.57353e-50 2.99044e-49 0)
(2.17547e-50 3.63436e-49 0)
(2.48022e-50 -2.59888e-49 0)
(-2.0779e-50 -2.67116e-49 0)
(-2.23655e-50 2.74779e-49 0)
(6.05707e-51 3.06966e-49 0)
(1.52412e-50 1.1264e-49 0)
(4.95276e-51 -7.75963e-50 0)
(-2.97733e-51 -7.47389e-51 0)
(6.10062e-52 -7.42963e-51 0)
(1.34514e-50 -2.5853e-50 0)
(-7.86301e-50 -3.70215e-49 0)
(-5.40974e-50 1.84095e-48 0)
(6.28351e-50 1.01977e-48 0)
(4.25811e-50 3.78259e-49 0)
(-1.66772e-50 -6.53933e-50 0)
(-3.43613e-51 8.10351e-49 0)
(5.31019e-50 3.12644e-50 0)
(-4.14523e-50 -5.50455e-49 0)
(-8.02208e-39 1.27686e-37 0)
(-4.61315e-40 8.10266e-39 0)
(-2.9808e-41 4.34483e-40 0)
(-1.5614e-42 2.42926e-41 0)
(-8.72997e-44 1.19821e-42 0)
(-4.21058e-45 6.00536e-44 0)
(-2.09908e-46 2.73914e-45 0)
(-9.38802e-48 1.25019e-46 0)
(-4.24812e-49 5.31382e-48 0)
(-1.73011e-50 2.24051e-49 0)
(-6.94668e-52 9.00225e-51 0)
(-2.25269e-53 3.58241e-52 0)
(-1.57604e-54 1.62528e-53 0)
(-1.22964e-53 2.54412e-53 0)
(-8.17234e-53 3.18213e-52 0)
(-8.05041e-52 2.11491e-51 0)
(-2.649e-52 2.09816e-50 0)
(2.03998e-51 8.92783e-51 0)
(1.24862e-51 -3.13824e-50 0)
(-1.17359e-51 -2.31197e-50 0)
(-1.33264e-51 -1.25329e-51 0)
(-5.81527e-52 1.10736e-50 0)
(8.04141e-52 1.36757e-50 0)
(9.16457e-52 -9.56673e-51 0)
(-7.67816e-52 -9.85583e-51 0)
(-8.26807e-52 1.0148e-50 0)
(2.23949e-52 1.13641e-50 0)
(5.63275e-52 4.40095e-51 0)
(1.8302e-52 -3.09611e-51 0)
(-1.10118e-52 -2.97843e-52 0)
(1.85416e-53 -2.71544e-52 0)
(4.69528e-52 -8.76924e-52 0)
(-3.1777e-51 -1.30358e-50 0)
(-1.99942e-51 7.37088e-50 0)
(2.59323e-51 3.82907e-50 0)
(1.60091e-51 1.4109e-50 0)
(-6.11645e-52 -2.10794e-51 0)
(-1.26289e-52 2.99323e-50 0)
(1.96224e-51 1.15159e-51 0)
(-1.53251e-51 -2.0533e-50 0)
(-1.09235e-36 8.55504e-37 0)
(-6.44888e-38 5.37246e-38 0)
(-4.11577e-39 2.80032e-39 0)
(-2.2097e-40 1.55376e-40 0)
(-1.23482e-41 7.51052e-42 0)
(-6.08959e-43 3.73784e-43 0)
(-3.05104e-44 1.67872e-44 0)
(-1.39176e-45 7.61097e-46 0)
(-6.35234e-47 3.18888e-47 0)
(-2.69556e-48 1.33223e-48 0)
(-1.13357e-49 5.22807e-50 0)
(-4.49604e-51 2.02986e-51 0)
(-1.75698e-52 7.49673e-53 0)
(-6.96674e-54 3.64076e-54 0)
(-3.10037e-54 1.18489e-53 0)
(-2.79962e-53 7.84684e-53 0)
(-9.1743e-54 7.75626e-52 0)
(7.09195e-53 3.2982e-52 0)
(4.34154e-53 -1.16003e-51 0)
(-4.07914e-53 -8.54944e-52 0)
(-4.63872e-53 -4.64579e-53 0)
(-2.05163e-53 4.09541e-52 0)
(2.79564e-53 5.05319e-52 0)
(3.21443e-53 -3.53477e-52 0)
(-2.66578e-53 -3.6426e-52 0)
(-2.87674e-53 3.75075e-52 0)
(7.50949e-54 4.20263e-52 0)
(1.98805e-53 1.62569e-52 0)
(6.66502e-54 -1.14195e-52 0)
(-4.10013e-54 -1.10802e-53 0)
(5.02748e-55 -9.71838e-54 0)
(1.5398e-53 -2.8683e-53 0)
(-1.18783e-52 -4.55298e-52 0)
(-6.95037e-53 2.98591e-51 0)
(9.83946e-53 1.44187e-51 0)
(5.62274e-53 5.25889e-52 0)
(-2.10858e-53 -7.712e-53 0)
(-4.03026e-54 1.10627e-51 0)
(6.84625e-53 4.26914e-53 0)
(-5.37862e-53 -7.58681e-52 0)
(-1.55859e-35 -1.06162e-36 0)
(-8.84779e-37 -7.34504e-38 0)
(-5.61994e-38 -3.94904e-39 0)
(-2.93813e-39 -2.21189e-40 0)
(-1.63204e-40 -1.07715e-41 0)
(-7.89183e-42 -5.37487e-43 0)
(-3.9286e-43 -2.42485e-44 0)
(-1.76465e-44 -1.1015e-45 0)
(-8.00176e-46 -4.6311e-47 0)
(-3.35294e-47 -1.93799e-48 0)
(-1.40091e-48 -7.62582e-50 0)
(-5.4976e-50 -2.96491e-51 0)
(-2.13444e-51 -1.09591e-52 0)
(-7.87368e-53 -3.95221e-54 0)
(-2.9574e-54 2.7069e-55 0)
(-1.06516e-54 2.7428e-54 0)
(-3.19368e-55 2.69677e-53 0)
(2.44689e-54 1.1453e-53 0)
(1.49815e-54 -4.03294e-53 0)
(-1.40729e-54 -2.97449e-53 0)
(-1.60132e-54 -1.62142e-54 0)
(-7.09213e-55 1.4273e-53 0)
(9.64693e-55 1.78467e-53 0)
(1.11023e-54 -1.22555e-53 0)
(-9.1944e-55 -1.26555e-53 0)
(-9.92848e-55 1.30408e-53 0)
(2.57889e-55 1.46425e-53 0)
(6.87322e-55 5.91456e-54 0)
(2.31339e-55 -4.22224e-54 0)
(-1.42917e-55 -4.09715e-55 0)
(1.23306e-56 -3.31829e-55 0)
(4.96331e-55 -8.87101e-55 0)
(-4.43623e-54 -1.49455e-53 0)
(-2.39801e-54 1.11809e-52 0)
(3.73193e-54 5.10082e-53 0)
(1.97289e-54 1.84597e-53 0)
(-7.21756e-55 -2.34553e-54 0)
(-1.36641e-55 3.84689e-53 0)
(2.36302e-54 1.47817e-54 0)
(-1.85878e-54 -2.66041e-53 0)
(2.05733e-35 -2.25146e-36 0)
(1.17981e-36 -2.11544e-37 0)
(7.51737e-38 -1.19644e-38 0)
(3.95752e-39 -6.79151e-40 0)
(2.20361e-40 -3.30521e-41 0)
(1.07094e-41 -1.64824e-42 0)
(5.34168e-43 -7.4145e-44 0)
(2.40849e-44 -3.36377e-45 0)
(1.09392e-45 -1.41081e-46 0)
(4.59726e-47 -5.89671e-48 0)
(1.92351e-48 -2.31567e-49 0)
(7.56604e-50 -8.99323e-51 0)
(2.9411e-51 -3.31867e-52 0)
(1.08678e-52 -1.20517e-53 0)
(3.947e-54 -4.05164e-55 0)
(1.05875e-55 8.08148e-56 0)
(-5.63604e-57 9.30141e-55 0)
(8.04461e-56 3.94971e-55 0)
(4.91702e-56 -1.39157e-54 0)
(-4.61689e-56 -1.02675e-54 0)
(-5.26012e-56 -5.60595e-56 0)
(-2.35659e-56 4.92888e-55 0)
(3.16557e-56 6.16966e-55 0)
(3.67104e-56 -4.22596e-55 0)
(-3.0134e-56 -4.36619e-55 0)
(-3.26022e-56 4.49945e-55 0)
(8.1905e-57 5.05583e-55 0)
(2.28477e-56 2.052e-55 0)
(7.88868e-57 -1.46668e-55 0)
(-4.96107e-57 -1.43271e-56 0)
(2.36902e-58 -1.10516e-56 0)
(1.51598e-56 -2.60392e-56 0)
(-1.55726e-55 -4.82137e-55 0)
(-7.86788e-56 4.18323e-54 0)
(1.3255e-55 1.79355e-54 0)
(6.55161e-56 6.42333e-55 0)
(-2.34823e-56 -7.86447e-56 0)
(-4.12491e-57 1.32728e-54 0)