/*--------------------------------*- C++ -*----------------------------------*\
| =========                 |                                                 |
| \\      /  F ield         | OpenFOAM: The Open Source CFD Toolbox           |
|  \\    /   O peration     | Version:  2.4.0                                 |
|   \\  /    A nd           | Web:      www.OpenFOAM.org                      |
|    \\/     M anipulation  |                                                 |
\*---------------------------------------------------------------------------*/
FoamFile
{
    version     2.0;
    format      ascii;
    class       surfaceScalarField;
    location    "0.1";
    object      phi;
}
// * * * * * * * * * * * * * * * * * * * * * * * * * * * * * * * * * * * * * //

dimensions      [0 3 -1 0 0 0 0];

internalField   nonuniform List<scalar> 
3782
(
-1.2373e-43
1.13012e-40
-1.28065e-43
2.96226e-42
-4.76469e-44
2.94512e-43
-8.40682e-43
1.08248e-44
-3.85833e-41
3.82863e-44
-5.07814e-40
-2.16098e-41
-2.33422e-38
-2.83376e-39
-5.31823e-38
-2.77913e-37
-1.55073e-36
-3.61102e-35
-1.1049e-35
-2.38716e-37
-5.423e-36
1.91603e-36
-2.52457e-33
-7.73014e-38
2.57402e-33
-3.88309e-36
6.02354e-36
-2.28093e-39
1.1349e-35
1.95757e-36
1.63766e-36
4.00792e-38
1.8058e-36
-3.55518e-40
1.09002e-35
-4.13228e-38
-8.61383e-36
-2.16521e-36
2.89294e-33
2.38659e-36
-5.94717e-33
6.7301e-36
-1.68343e-35
-2.29287e-36
-3.70942e-35
-6.86755e-36
3.08474e-33
2.44065e-36
-6.32614e-33
7.12094e-36
-2.11791e-35
-4.87337e-36
3.24054e-33
-4.82059e-36
-3.30182e-33
2.34111e-36
3.34534e-33
-3.03252e-37
-3.41711e-33
-4.91816e-35
-9.91189e-36
-4.35171e-37
-1.50312e-35
-2.5959e-36
-2.12196e-36
-5.31828e-38
-4.81139e-38
-4.43167e-39
-4.93228e-38
5.80029e-42
-2.33584e-36
4.88285e-39
-1.43794e-35
5.45852e-38
1.11986e-35
2.85361e-36
-3.81219e-33
-3.12083e-36
7.80786e-33
-8.84985e-36
3.72949e-35
2.9395e-36
3.68138e-35
5.98089e-36
1.18104e-37
3.78795e-39
-4.37907e-42
4.76809e-38
-7.54742e-41
1.66201e-36
-2.65376e-39
-3.0795e-38
1.18552e-35
9.09905e-41
-4.49137e-42
1.1614e-39
-7.7453e-41
3.50034e-38
-2.71729e-39
-3.15423e-38
2.52812e-37
8.93165e-42
-8.39051e-44
9.59716e-41
-2.13362e-42
2.68884e-39
-6.97924e-41
-8.10244e-40
7.39372e-39
2.08431e-43
7.62485e-43
2.22483e-42
6.00327e-43
5.65546e-41
-6.38135e-42
-6.43505e-41
1.27091e-40
-2.48443e-44
3.55549e-41
6.60927e-45
3.66816e-41
3.01949e-42
1.13568e-42
-1.41973e-42
5.87668e-42
-1.22094e-41
4.50942e-40
-2.5175e-42
4.66139e-40
-1.03249e-42
1.64346e-41
1.29128e-42
7.57855e-44
-1.51109e-39
2.07362e-38
-1.48902e-40
2.13334e-38
-5.22737e-41
6.41347e-40
5.34035e-41
-1.98625e-42
-1.43377e-37
1.93807e-38
-5.31706e-39
2.08242e-38
-6.86883e-40
6.2372e-40
5.20152e-41
-2.45528e-41
-3.54144e-37
-6.20749e-38
-2.49401e-37
-2.43358e-38
-3.25692e-38
-7.22576e-40
-5.77421e-41
-1.00793e-39
-1.04937e-37
-3.20308e-37
-3.95861e-39
-2.90286e-38
-5.75437e-40
-7.87616e-40
-5.90813e-41
-2.08476e-41
1.87055e-36
-1.23154e-35
5.60359e-38
-1.75108e-37
4.61289e-39
-1.88722e-39
-5.53863e-42
1.39783e-40
-7.56121e-38
-1.18176e-35
-2.48213e-39
-1.66895e-37
-2.05747e-40
-1.7817e-39
-3.86962e-42
-6.59413e-42
-3.78842e-36
1.25393e-35
-1.13741e-37
1.77333e-37
-9.44752e-39
1.89748e-39
4.43326e-42
-2.8719e-40
-2.42567e-39
1.25661e-35
-2.78705e-40
1.78452e-37
-2.18659e-41
1.91652e-39
4.69501e-42
-9.85525e-43
1.90983e-36
3.07031e-37
5.7327e-38
7.98182e-39
4.76002e-39
1.52983e-40
6.01099e-42
1.4467e-40
3.93054e-38
4.36062e-38
1.38902e-39
3.58532e-39
1.14019e-40
1.00946e-40
5.84672e-42
3.79088e-42
-3.48333e-40
4.78726e-38
-1.19438e-41
3.93124e-39
-1.15796e-42
1.10326e-40
6.39111e-42
-3.7887e-44
-4.0525e-38
2.95722e-37
-1.43261e-39
4.75962e-39
-1.15497e-40
5.27273e-41
-1.76209e-43
-3.83823e-42
-2.11214e-36
1.38151e-35
-6.31291e-38
1.88417e-37
-5.24138e-39
1.87066e-39
-8.65703e-42
-1.5887e-40
2.32887e-36
-1.18352e-36
7.04032e-38
-2.51959e-38
5.8447e-39
-4.26742e-40
-1.41276e-41
1.78421e-40
6.566e-36
-4.33745e-35
1.97114e-37
-6.18091e-37
1.63706e-38
-6.69319e-39
-2.18346e-41
4.976e-40
-2.23696e-36
-2.90181e-35
-6.71546e-38
-4.18838e-37
-5.57572e-39
-4.64099e-39
-2.42114e-41
-1.69473e-40
-6.70004e-36
1.39851e-35
-2.01082e-37
1.78743e-37
-1.66964e-38
1.53397e-39
-2.94297e-41
-5.07402e-40
2.38114e-36
-1.27655e-36
7.1481e-38
-3.02335e-38
5.93319e-39
-5.58033e-40
-2.12989e-41
1.8033e-40
6.94703e-36
-4.58797e-35
2.08269e-37
-6.53049e-37
1.72969e-38
-7.06729e-39
-2.31795e-41
5.25307e-40
-4.75431e-36
-1.53251e-35
-1.42485e-37
-2.21946e-37
-1.18367e-38
-2.46342e-39
-1.26261e-41
-3.59419e-40
-4.70329e-36
1.4903e-35
-1.41456e-37
2.03236e-37
-1.1747e-38
2.02984e-39
-7.29778e-42
-3.5748e-40
2.28534e-36
2.50619e-37
6.79558e-38
2.72589e-38
5.59057e-39
7.37365e-40
6.24746e-41
1.68575e-40
-1.12071e-37
-3.31361e-37
-4.31742e-39
2.34843e-38
-7.17914e-40
8.10205e-40
7.35504e-41
-2.63313e-41
2.05469e-36
-1.69208e-35
-2.80887e-37
-2.73508e-37
-4.0338e-38
-3.59008e-39
-8.83191e-41
-1.25188e-39
-2.41256e-37
-1.66939e-35
-8.69238e-39
-2.70938e-37
-1.07392e-39
-3.5785e-39
-9.00802e-41
-3.79097e-41
-2.53081e-36
-4.07476e-37
-7.61358e-38
-1.13008e-38
-6.38111e-39
-2.28379e-40
-1.00615e-41
-1.94558e-40
-5.21437e-38
-5.63655e-38
-1.84633e-39
-4.6824e-39
-1.52932e-40
-1.31903e-40
-7.71632e-42
-5.10003e-42
-4.34598e-39
-1.48675e-39
-1.5294e-40
-1.30386e-40
-1.49071e-41
-4.0438e-42
-2.36482e-43
-4.97682e-43
5.70584e-42
-1.52579e-39
2.19923e-43
-1.30297e-40
1.8412e-44
-4.03018e-42
-2.32345e-43
6.46312e-46
4.78792e-39
-6.17312e-38
1.67907e-40
-5.06464e-39
1.62874e-41
-1.41803e-40
-8.21542e-42
5.42007e-43
5.35315e-38
-3.90091e-37
1.89271e-39
-6.30402e-39
1.52671e-40
-7.03553e-41
1.82604e-43
5.0744e-42
2.78367e-36
-1.82082e-35
8.3203e-38
-2.48402e-37
6.90804e-39
-2.46759e-39
1.12905e-41
2.09393e-40
-3.04536e-36
1.40571e-36
-9.20664e-38
3.10451e-38
-7.64316e-39
5.40225e-40
1.86466e-41
-2.33328e-40
-8.63409e-36
5.69169e-35
-2.59225e-37
8.15485e-37
-2.15314e-38
8.92249e-39
3.72905e-41
-6.5452e-40
2.86753e-36
3.84978e-35
8.57795e-38
5.56344e-37
7.12688e-39
6.16452e-39
3.15207e-41
2.16157e-40
5.83536e-36
9.95277e-37
1.75492e-37
2.94217e-38
1.45722e-38
6.1035e-40
2.66534e-41
4.43422e-40
1.15831e-37
4.10448e-39
3.3558e-40
1.11843e-41
1.62803e-35
-1.27513e-36
2.19101e-33
-1.21839e-36
3.80583e-38
2.52699e-36
-2.18945e-33
2.52458e-36
-3.74903e-36
-1.24932e-36
5.34877e-36
-2.55299e-36
2.20168e-33
-1.28008e-36
1.7505e-35
1.24686e-36
1.22292e-35
1.27767e-36
1.56174e-36
3.08196e-38
3.79289e-38
2.46702e-39
2.67549e-39
5.91941e-41
-5.48203e-39
9.52749e-42
-7.3062e-38
1.1497e-40
-3.0856e-36
4.87505e-39
-2.28995e-35
5.91754e-38
-2.28158e-35
2.52458e-36
-4.38738e-33
1.21844e-36
2.18039e-33
-3.77878e-36
1.0624e-35
-2.58386e-36
2.21237e-33
-3.18699e-38
2.05732e-35
1.3936e-36
2.45138e-35
1.44875e-36
1.91251e-35
-1.126e-36
2.20328e-33
-1.24541e-36
1.75284e-35
1.2508e-36
1.22325e-35
1.39717e-36
1.59675e-36
1.09466e-37
4.39533e-38
-7.61826e-38
6.1293e-38
-1.1949e-37
3.12105e-36
-6.3137e-39
2.44498e-35
-5.88215e-38
3.3612e-35
-2.31123e-36
4.39728e-33
2.59066e-35
3.88473e-35
3.96296e-36
-2.16818e-33
1.4346e-36
4.357e-33
-9.31336e-37
-4.38351e-33
3.84395e-36
-2.27123e-35
-8.76139e-38
-2.6026e-36
8.68094e-36
-1.3014e-36
1.67055e-35
-1.24328e-36
9.26568e-40
2.57896e-36
-1.66725e-35
2.57649e-36
-8.41843e-36
-1.27496e-36
8.45219e-36
-2.60559e-36
1.69337e-35
-1.30647e-36
8.71145e-36
1.27243e-36
2.6104e-37
1.304e-36
3.28351e-38
3.15679e-38
9.23559e-40
2.52591e-39
6.3753e-41
6.07453e-41
-1.3094e-40
9.77254e-42
-1.78021e-39
1.17984e-40
-6.47481e-38
4.99129e-39
-4.89309e-37
6.0613e-38
-1.71627e-35
2.57649e-36
-2.51878e-35
1.24333e-36
-1.97183e-37
-3.85644e-36
1.69022e-35
-2.63722e-36
1.71447e-35
-3.40037e-38
8.75844e-36
1.30223e-36
5.40762e-37
1.41346e-36
8.76341e-36
-1.26916e-36
1.69675e-35
-1.27233e-36
8.69475e-36
1.27511e-36
2.61515e-37
1.30724e-36
6.83617e-38
1.66858e-37
1.46288e-39
-1.32768e-37
-1.58481e-38
-3.24002e-39
6.47669e-38
-5.12712e-39
5.03139e-37
-6.16308e-38
1.73757e-35
-2.48182e-36
3.37531e-35
-2.31876e-36
9.16899e-36
3.91987e-36
4.40969e-37
1.34283e-36
7.87962e-36
-1.01503e-36
-1.67315e-35
3.80403e-36
-1.69963e-35
2.81255e-38
-2.59341e-36
8.98493e-38
-2.84579e-38
1.67471e-37
-2.69668e-38
7.59321e-41
5.63052e-38
-1.64921e-37
5.62422e-38
-8.23864e-38
-2.77798e-38
8.50034e-38
-5.69895e-38
1.72265e-37
-2.85885e-38
9.21899e-38
2.77152e-38
7.3309e-39
2.85254e-38
2.54121e-39
8.10317e-40
7.56043e-41
6.47198e-41
6.27926e-42
1.7045e-42
-1.28971e-41
2.7094e-43
-1.4462e-40
3.31134e-42
-5.00697e-39
1.27742e-40
-1.2127e-38
1.556e-39
-1.77118e-37
5.62421e-38
-2.54793e-37
2.69678e-38
-2.39381e-39
-8.41498e-38
1.69851e-37
-5.78008e-38
1.76733e-37
-8.4292e-40
9.68099e-38
2.88036e-38
1.51244e-38
4.53067e-38
9.52095e-38
-2.73076e-38
1.74877e-37
-2.7682e-38
9.18868e-38
2.78138e-38
7.34815e-39
2.89025e-38
3.31568e-39
1.79315e-38
9.84247e-41
-1.70566e-38
-2.64439e-40
-3.76848e-40
4.61544e-39
-1.58994e-40
-4.0109e-39
-1.52093e-39
1.6392e-37
-5.36342e-38
3.6539e-37
8.71699e-38
1.20083e-37
8.59861e-38
9.79502e-39
2.99072e-38
7.83029e-38
-7.13447e-39
-1.71649e-37
8.3099e-38
-1.81234e-37
4.87349e-40
-7.02688e-38
7.01576e-40
-2.23802e-39
1.23534e-39
-2.12363e-39
1.76075e-42
4.43246e-39
-1.18165e-39
4.42665e-39
-5.74431e-40
-2.18744e-39
6.29679e-40
-4.48439e-39
1.30629e-39
-2.25083e-39
7.50662e-40
2.18149e-39
1.24333e-40
2.24502e-39
5.34896e-41
6.35418e-41
1.75316e-42
5.96087e-42
1.45255e-43
1.57062e-43
-2.98893e-43
2.65264e-44
-3.3534e-42
3.04569e-43
-1.0523e-40
1.17653e-41
-1.95326e-40
1.21131e-40
-1.37858e-39
4.42664e-39
-1.91336e-39
2.12374e-39
-2.07857e-41
-6.62586e-39
1.25512e-39
-4.54808e-39
1.34761e-39
-6.86495e-41
8.2542e-40
2.24353e-39
2.80889e-40
2.57392e-39
8.37246e-40
-2.17106e-39
1.36147e-39
-2.18058e-39
7.22258e-40
2.18847e-39
1.25298e-40
2.25474e-39
1.14445e-40
4.39774e-40
2.84144e-42
-3.70279e-40
-2.76573e-41
-9.66927e-42
9.44719e-41
-1.19884e-41
-1.59939e-40
-9.38724e-41
1.05774e-39
-4.06692e-39
3.09407e-39
1.36461e-38
1.2705e-39
6.92352e-39
1.26366e-40
2.35808e-39
6.00738e-40
-1.55745e-39
-1.27859e-39
6.5264e-39
-1.52664e-39
5.96882e-41
-4.5724e-39
6.65244e-45
-4.89245e-41
-5.81565e-42
-4.61886e-41
9.54543e-44
9.68181e-41
8.741e-42
9.66791e-41
5.81586e-42
-4.77187e-41
-2.80715e-42
-9.80636e-41
-3.05472e-42
-4.92383e-41
2.68042e-42
4.75761e-41
5.66857e-42
4.90992e-41
2.91341e-42
1.52339e-42
9.50008e-44
1.42866e-43
8.36564e-45
4.01167e-45
-1.72076e-44
6.70014e-46
-1.81201e-43
7.78114e-45
-5.73204e-42
2.81737e-43
-8.4323e-42
2.90413e-42
2.22024e-43
9.66788e-41
5.98866e-42
4.61913e-41
-2.46661e-44
-1.4468e-40
-5.81676e-42
-9.95893e-41
-8.88814e-43
-1.59182e-42
7.74772e-42
4.95603e-41
1.20968e-41
7.59253e-41
6.37932e-42
-4.68294e-41
-5.26548e-44
-4.74989e-41
2.12327e-42
4.77976e-41
5.69703e-42
4.97752e-41
4.24353e-42
2.89878e-41
1.29792e-43
-2.73218e-41
-5.49208e-43
-6.74404e-43
4.89245e-42
-3.35568e-43
-2.07867e-41
-2.1526e-42
-2.84301e-41
-8.73829e-41
3.0876e-41
3.02173e-40
3.96804e-41
1.52542e-40
5.94444e-42
5.24052e-41
-2.0568e-42
-1.36702e-41
1.44521e-42
1.42741e-40
-8.47429e-42
1.10035e-42
-1.18531e-40
-9.01361e-44
-2.55401e-42
-2.87579e-43
-2.45384e-42
2.15515e-45
5.14464e-42
3.49692e-43
5.13684e-42
2.07024e-43
-2.53633e-42
-1.4291e-43
-5.20897e-42
-2.31881e-43
-2.61599e-42
-2.95964e-44
2.52839e-42
1.17413e-43
2.60824e-42
6.19556e-44
7.98635e-44
2.15097e-45
7.95648e-45
1.87361e-46
2.20879e-46
-3.85931e-46
3.77084e-47
-4.10433e-45
4.28143e-46
-1.21765e-43
1.5693e-44
-1.73063e-43
1.51783e-43
1.74664e-43
5.13683e-42
3.74746e-43
2.45625e-42
2.28903e-45
-7.68888e-42
-2.91038e-43
-5.28901e-42
-2.10615e-43
-8.59984e-44
5.68367e-44
2.6107e-42
2.72307e-43
3.16945e-42
7.09271e-44
-2.51003e-42
-1.67851e-43
-2.52647e-42
-6.23643e-44
2.5384e-42
1.18626e-43
2.62499e-42
1.32635e-43
6.94872e-43
3.49707e-45
-6.07062e-43
-3.27668e-44
-1.66142e-44
1.00982e-43
-1.57297e-44
-4.6786e-43
-8.28372e-44
-7.94506e-43
-4.44408e-42
3.42093e-43
2.39113e-41
7.48723e-43
8.30444e-42
1.01735e-43
2.79121e-42
-9.62771e-44
-1.59703e-42
2.3733e-43
7.57e-42
-3.36041e-44
7.52523e-44
-5.46826e-42
-1.68031e-43
1.52229e-42
-1.89505e-44
2.83274e-44
-1.56295e-46
1.13348e-43
1.69153e-44
1.11265e-43
9.81634e-45
-5.48482e-44
-7.1551e-45
-1.12851e-43
-1.20651e-44
-5.66882e-44
-2.48292e-45
5.46685e-44
4.83998e-45
5.65113e-44
2.57308e-45
1.84306e-45
8.8134e-47
1.81867e-46
7.8398e-48
5.28879e-48
-1.61414e-47
8.90619e-49
-1.68006e-46
1.02551e-47
-5.05823e-45
3.58467e-46
-7.11492e-45
3.50454e-45
9.72643e-45
1.11184e-43
1.91784e-44
5.30018e-44
1.35903e-46
-1.66393e-43
-1.45039e-44
-1.14697e-43
-1.04976e-44
-1.92581e-45
1.81123e-45
5.70775e-44
1.05321e-44
8.74944e-44
9.70995e-46
-5.37387e-44
-9.40914e-45
-5.45657e-44
-3.14574e-45
5.49551e-44
4.87183e-45
5.73469e-44
4.10181e-45
3.35636e-44
1.24861e-46
-3.15389e-44
-6.90794e-46
-8.3221e-46
3.97524e-45
-4.08779e-46
-2.76275e-44
-1.79117e-45
-4.34257e-44
-9.40439e-44
1.73158e-44
5.41056e-43
3.86172e-44
1.81811e-43
5.08845e-45
6.13597e-44
-5.79584e-45
-1.51308e-44
1.08417e-44
1.64097e-43
1.66342e-45
1.40031e-45
-1.36266e-43
-1.66329e-42
1.53172e-42
-4.71905e-44
7.69502e-44
-2.32596e-45
6.46776e-45
2.95578e-46
4.60926e-45
2.04333e-46
-2.23404e-45
-1.51366e-46
-4.59771e-45
-2.56244e-46
-2.30966e-45
-5.47128e-47
2.22841e-45
1.00248e-46
2.3024e-45
5.35161e-47
7.40031e-47
1.9181e-48
7.45905e-48
1.68131e-49
2.13972e-49
-3.46544e-49
3.61437e-50
-3.65867e-48
4.14872e-49
-1.05119e-46
1.4705e-47
-1.47153e-46
1.40559e-46
2.07944e-46
4.531e-45
4.06517e-46
2.16164e-45
3.02742e-48
-6.78159e-45
-3.07304e-46
-4.67194e-45
-2.39673e-46
-7.91695e-47
1.92596e-47
2.30933e-45
2.33558e-46
2.95504e-45
3.28655e-47
-2.20657e-45
-2.00871e-46
-2.22601e-45
-8.35614e-47
2.23839e-45
1.01365e-46
2.32215e-45
1.15821e-46
7.71587e-46
3.13078e-48
-6.90132e-46
-2.96305e-47
-1.95697e-47
7.96292e-47
-1.44018e-47
-6.07895e-46
-4.56855e-47
-9.3902e-46
-3.64518e-45
3.79224e-46
2.9058e-44
8.16008e-46
7.59654e-45
9.25628e-47
2.50794e-45
-1.06338e-46
-1.23218e-45
2.61237e-46
6.67607e-45
2.5883e-47
6.81074e-47
-4.9693e-45
-6.92835e-41
-1.6973e-42
-1.7906e-42
-8.57508e-44
-9.01157e-44
-1.9883e-45
-2.22143e-45
1.18154e-47
-8.20902e-47
-4.88906e-47
-7.20419e-48
-9.67546e-47
-8.72485e-48
-4.85802e-47
-1.86313e-48
4.67908e-47
3.36687e-48
4.84214e-47
1.79611e-48
1.63076e-48
6.34655e-50
1.61993e-49
5.58158e-51
4.8128e-51
-1.14995e-50
8.00241e-52
-1.21042e-49
9.33558e-51
-3.52891e-48
3.19194e-49
-4.94344e-48
3.09978e-48
7.03286e-48
9.52165e-47
1.37281e-47
4.5317e-47
1.02203e-49
-1.42489e-46
-1.0359e-47
-9.83236e-47
-7.69593e-48
-1.69998e-48
1.01326e-48
4.89574e-47
7.4513e-48
7.57207e-47
6.75995e-49
-4.59309e-47
-6.79918e-48
-4.66946e-47
-2.44195e-48
4.70507e-47
3.39362e-48
4.9193e-47
3.10461e-48
2.95444e-47
9.28209e-50
-2.77518e-47
-6.25635e-49
-7.67348e-49
2.50974e-48
-3.47353e-49
-2.61906e-47
-8.85063e-49
-3.72087e-47
-7.43141e-47
1.82685e-47
6.44895e-46
3.35622e-47
1.61872e-46
3.67311e-48
5.34494e-47
-3.9828e-48
-1.1905e-47
8.03923e-48
1.40495e-46
1.28077e-48
1.24454e-48
-1.17347e-46
-1.47912e-42
-1.72695e-42
-4.20304e-44
-8.71526e-44
-2.13655e-45
-2.11845e-45
-5.63081e-47
-8.18609e-47
-2.12016e-48
-3.53496e-48
-1.58009e-49
-3.27006e-48
-1.75057e-49
-1.61129e-48
-3.74317e-50
1.55134e-48
6.72534e-50
1.60468e-48
3.59679e-50
5.33031e-50
1.31522e-51
5.30917e-51
1.13721e-52
1.55663e-52
-2.34493e-52
2.56898e-53
-2.51024e-51
3.02025e-52
-7.06238e-50
1.04633e-50
-9.8658e-50
1.01305e-49
1.40845e-49
3.1562e-48
2.74608e-49
1.50323e-48
2.10102e-51
-4.72336e-48
-2.07526e-49
-3.25777e-48
-1.62966e-49
-5.6583e-50
1.15496e-50
1.61324e-48
1.57508e-49
2.16803e-48
2.22924e-50
-1.5322e-48
-1.35965e-49
-1.54926e-48
-5.74949e-50
1.55889e-48
6.80522e-50
1.62198e-48
7.93458e-50
6.4564e-49
2.15977e-51
-5.87032e-49
-2.11773e-50
-1.71293e-50
4.78728e-50
-9.93192e-51
-5.57943e-49
-1.08842e-50
-7.76307e-49
-2.32327e-48
3.96974e-49
2.64257e-47
6.95915e-49
5.50563e-48
6.68707e-50
1.77814e-48
-7.03298e-50
-7.39627e-49
1.78082e-49
4.65032e-48
1.76142e-50
4.71561e-50
-3.56351e-48
6.99023e-42
2.685e-43
1.72889e-43
1.61402e-44
6.83897e-45
3.88995e-46
1.60597e-46
1.28468e-47
5.27657e-48
2.46877e-49
1.14007e-49
-5.69263e-50
-1.60325e-51
-3.23061e-50
-9.85859e-52
3.12467e-50
1.90018e-51
3.23569e-50
1.01448e-51
1.11413e-51
3.66031e-53
1.09038e-52
3.14405e-54
3.28383e-54
-6.4805e-54
5.32545e-55
-6.98841e-53
6.37456e-54
-1.99238e-51
2.14805e-52
-2.78577e-51
2.1194e-51
3.97413e-51
6.36027e-50
7.75064e-51
3.02344e-50
5.91084e-53
-9.51695e-50
-5.85152e-51
-6.57269e-50
-4.41842e-51
-1.15722e-51
5.01285e-52
3.27585e-50
4.27029e-51
5.13683e-50
4.49165e-52
-3.06233e-50
-3.83876e-51
-3.11745e-50
-1.44824e-51
3.14214e-50
1.91603e-51
3.29137e-50
1.88812e-51
2.05148e-50
5.51273e-53
-1.92917e-50
-4.34596e-52
-5.53016e-52
1.25074e-51
-2.21744e-52
-1.91454e-50
-1.29463e-52
-2.52151e-50
-4.49586e-50
1.45144e-50
5.65069e-49
2.32234e-50
1.12778e-49
2.16703e-51
3.62978e-50
-2.15707e-51
-7.02713e-51
4.67581e-51
9.38337e-50
6.59471e-52
8.3339e-52
-7.90986e-50
-3.31317e-43
2.99493e-43
-8.54021e-45
1.75229e-44
-3.39737e-46
4.2523e-46
-8.24587e-48
1.43401e-47
-2.72479e-49
3.16343e-49
-6.26826e-51
7.22789e-51
-2.69224e-52
-7.19534e-52
-2.39188e-53
8.78793e-52
3.60974e-53
9.04985e-52
1.9375e-53
3.0782e-53
7.17749e-55
2.98883e-54
6.05116e-56
8.89393e-56
-1.2481e-55
1.4221e-56
-1.37158e-54
1.72725e-55
-3.80376e-53
5.88901e-54
-5.30666e-53
5.85758e-53
7.58592e-53
1.77909e-51
1.47834e-52
8.46233e-52
1.15191e-54
-2.66209e-51
-1.11761e-52
-1.83781e-51
-8.83409e-53
-3.24084e-53
5.65997e-54
9.11981e-52
8.53163e-53
1.28335e-51
1.25624e-53
-8.61055e-52
-7.31881e-53
-8.727e-52
-3.15148e-53
8.7856e-52
3.66467e-53
9.16679e-52
4.3817e-53
4.24062e-52
1.18842e-54
-3.90295e-52
-1.22362e-53
-1.16686e-53
2.23991e-53
-5.36466e-54
-3.90236e-52
6.44524e-54
-5.04712e-52
-1.17204e-51
3.0045e-52
1.87938e-50
4.63815e-52
3.24007e-51
3.87917e-53
1.0197e-51
-3.68972e-53
-3.51522e-52
9.69881e-53
2.62152e-51
8.90431e-54
2.58588e-53
-2.06629e-51
-1.44927e-41
-3.0919e-43
-3.5968e-43
-1.83103e-44
-1.43547e-44
-4.45194e-46
-3.38372e-46
-1.50593e-47
-1.12067e-47
-3.33677e-49
-2.49522e-49
-9.56578e-51
-7.07455e-51
-2.16342e-52
-1.48674e-52
1.17955e-53
-2.79027e-54
1.72604e-53
3.99388e-55
6.0516e-55
1.56744e-56
5.7777e-56
1.40723e-57
1.75522e-57
-2.96233e-57
2.75465e-58
-3.30064e-56
3.4121e-57
-9.25945e-55
1.13884e-55
-1.29276e-54
1.15688e-54
1.84655e-54
3.41095e-53
3.59954e-54
1.6199e-53
2.79739e-56
-5.10316e-53
-2.71917e-54
-3.52689e-53
-2.0854e-54
-6.28038e-55
2.01419e-55
1.76004e-53
2.01425e-54
2.80766e-53
2.40945e-55
-1.6392e-53
-1.78243e-54
-1.67119e-53
-7.04185e-55
1.68471e-53
8.9071e-55
1.76806e-53
9.39944e-55
1.15194e-53
2.6735e-56
-1.08543e-53
-2.40018e-55
-3.20518e-55
4.94598e-55
-1.10572e-55
-1.11726e-53
1.90144e-55
-1.39125e-53
-2.12753e-53
8.94146e-54
3.83426e-52
1.30311e-53
6.33025e-53
1.06033e-54
1.97856e-53
-9.59628e-55
-3.18004e-54
2.23488e-54
5.03188e-53
2.75259e-55
4.37707e-55
-4.29134e-53
-4.68773e-44
-3.06551e-43
-1.45544e-45
-1.82672e-44
-5.55867e-47
-4.44793e-46
-1.52208e-48
-1.50439e-47
-4.87783e-50
-3.33537e-49
-1.21047e-51
-9.52626e-51
-3.3527e-53
-1.99329e-52
-7.70397e-55
-4.54791e-54
-2.61711e-57
3.22799e-55
8.14808e-57
1.23983e-56
3.10453e-58
1.32495e-57
2.58411e-59
4.0222e-59
-5.36471e-59
6.29994e-60
-6.10293e-58
7.97182e-59
-1.67551e-56
2.68797e-57
-2.33503e-56
2.77252e-56
3.34072e-56
8.25501e-55
6.50824e-56
3.92239e-55
5.1479e-58
-1.23502e-54
-4.9221e-56
-8.53288e-55
-3.92049e-56
-1.51889e-56
2.20453e-57
4.24391e-55
3.78458e-56
6.23837e-55
5.83114e-57
-3.98345e-55
-3.22165e-56
-4.04713e-55
-1.41672e-56
4.07588e-55
1.61434e-56
4.26438e-55
1.98723e-56
2.24488e-55
5.33511e-58
-2.0858e-55
-5.80941e-57
-6.37074e-57
8.19239e-57
-2.32141e-57
-2.16265e-55
9.13033e-57
-2.65129e-55
-4.7145e-55
1.7519e-55
1.07518e-53
2.4832e-55
1.5754e-54
1.84471e-56
4.81235e-55
-1.57716e-56
-1.33142e-55
4.32893e-56
1.21658e-54
3.61663e-57
1.14735e-56
-9.85616e-55
7.29948e-42
1.57672e-43
1.8114e-43
6.19743e-45
7.22888e-45
1.43598e-46
1.70391e-46
4.80568e-48
5.64328e-48
1.0608e-49
1.25646e-49
3.03069e-51
3.56139e-51
6.3132e-53
7.46202e-53
1.58058e-54
1.8494e-54
3.84373e-56
3.65406e-56
9.50338e-58
8.06507e-58
3.72733e-59
1.52652e-59
1.00353e-60
-8.25157e-61
1.18301e-61
-1.29302e-59
1.47096e-60
-3.58575e-58
4.88026e-59
-5.00007e-58
5.1504e-58
7.14887e-58
1.49747e-56
1.39303e-57
7.1062e-57
1.0998e-59
-2.24004e-56
-1.05294e-57
-1.54908e-56
-8.19957e-58
-2.77756e-58
6.58233e-59
7.74216e-57
7.91614e-58
1.25984e-56
1.05816e-58
-7.18235e-57
-6.89688e-58
-7.33457e-57
-2.84756e-58
7.39459e-57
3.45083e-58
7.77551e-57
3.88205e-58
5.32255e-57
1.07479e-59
-5.02789e-57
-1.07839e-58
-1.52303e-58
1.5369e-58
-4.40452e-59
-5.32106e-57
2.0207e-58
-6.34672e-57
-7.92864e-57
4.42238e-57
2.07978e-55
6.02681e-57
2.91965e-56
4.35538e-58
8.82812e-57
-3.55063e-58
-1.10131e-57
8.89543e-58
2.20911e-56
9.44825e-59
1.84683e-58
-1.90979e-56
1.88365e-43
1.66678e-43
4.97049e-45
6.73198e-45
1.95823e-46
1.57435e-46
4.83041e-48
5.26763e-48
1.58327e-49
1.1678e-49
3.65122e-51
3.33318e-51
1.0266e-52
6.96771e-53
2.21173e-54
1.73504e-54
5.44864e-56
3.42392e-56
1.09861e-57
7.57819e-58
2.41171e-59
1.43569e-59
4.59123e-61
2.89556e-61
-1.00784e-62
7.00622e-63
-2.24381e-61
3.03033e-62
-6.12035e-60
1.01148e-60
-8.52178e-60
1.08938e-59
1.21998e-59
3.19179e-58
2.37608e-59
1.51525e-58
1.90375e-61
-4.77435e-58
-1.79776e-59
-3.30095e-58
-1.44438e-59
-5.90913e-60
6.84318e-61
1.64572e-58
1.39383e-59
2.52222e-58
2.25541e-60
-1.53566e-58
-1.17608e-59
-1.56412e-58
-5.29527e-60
1.57568e-58
5.89828e-60
1.65306e-58
7.49991e-60
9.75336e-59
1.98449e-61
-9.13169e-59
-2.29352e-60
-2.8437e-60
2.30196e-60
-8.15291e-61
-9.73092e-59
6.01265e-60
-1.14512e-58
-1.50421e-58
8.16713e-59
5.04377e-57
1.08875e-58
6.40858e-58
7.29812e-60
1.89232e-58
-5.56898e-60
-3.99269e-59
1.60536e-59
4.70495e-58
1.19487e-60
4.17526e-60
-3.91568e-58
-2.02235e-45
1.81798e-43
-5.2003e-47
7.34589e-45
-2.10686e-48
1.71507e-46
-5.05324e-50
5.74085e-48
-1.66791e-51
1.27106e-49
-3.73737e-53
3.62926e-51
-1.04537e-54
7.57892e-53
-2.18763e-56
1.88764e-54
-5.31695e-58
3.705e-56
-1.03242e-59
8.17978e-58
-2.21017e-61
1.50529e-59
-3.89194e-63
2.98123e-61
-4.28692e-64
5.16141e-63
-4.24989e-63
6.11502e-64
-1.16722e-61
1.71938e-62
-1.6259e-61
1.89781e-61
2.32641e-61
5.45517e-60
4.53181e-61
2.58705e-60
3.62702e-63
-8.15895e-60
-3.42749e-61
-5.64531e-60
-2.70979e-61
-1.01619e-61
1.74356e-62
2.82639e-60
2.61516e-61
4.70268e-60
3.85601e-62
-2.61109e-60
-2.24341e-61
-2.67126e-60
-9.66564e-62
2.69322e-60
1.12395e-61
2.83774e-60
1.34321e-61
2.04891e-60
3.6199e-63
-1.94093e-60
-4.00338e-62
-6.01392e-62
3.60616e-62
-1.41923e-62
-2.09956e-60
1.18459e-61
-2.42032e-60
-2.30244e-60
1.79413e-60
9.20899e-59
2.32478e-60
1.12198e-59
1.51508e-61
3.26875e-60
-1.10155e-61
-2.80769e-61
2.97507e-61
8.0483e-60
2.67807e-62
6.353e-62
-7.06534e-60
-1.89102e-43
-2.05424e-44
-4.9969e-45
-1.02425e-45
-1.96248e-46
-2.54672e-47
-4.85129e-48
-8.5091e-49
-1.58942e-49
-1.93765e-50
-3.67468e-51
-5.49468e-52
-1.03429e-52
-1.17224e-53
-2.23443e-54
-2.90361e-55
-5.51463e-56
-5.79636e-57
-1.11205e-57
-1.27447e-58
-2.44227e-59
-2.37629e-60
-4.59205e-61
-4.69176e-62
-9.07703e-63
-8.15212e-64
-2.27888e-64
-5.06891e-66
-1.87487e-63
3.1708e-64
-2.60456e-63
3.58844e-63
3.73048e-63
1.0374e-61
7.26408e-63
4.92121e-62
5.88633e-65
-1.5515e-61
-5.49848e-63
-1.07336e-61
-4.46057e-63
-1.92755e-63
1.67526e-64
5.36491e-62
4.30329e-63
8.56028e-62
7.33303e-64
-4.97647e-62
-3.59523e-63
-5.08186e-62
-1.66133e-63
5.12052e-62
1.80481e-63
5.38677e-62
2.37748e-63
3.52253e-62
6.18266e-65
-3.31895e-62
-7.59503e-64
-1.05223e-63
4.64103e-64
-2.3379e-64
-3.61325e-62
2.79656e-63
-4.11689e-62
-3.7042e-62
3.11272e-62
1.96643e-60
3.96221e-62
2.20101e-61
2.42732e-63
6.25521e-62
-1.63945e-63
-9.19756e-63
4.99417e-63
1.52965e-61
3.22388e-64
1.2563e-63
-1.3073e-61
-8.01815e-42
-7.29209e-43
-1.98589e-43
-3.5915e-44
-7.92797e-45
-8.58214e-46
-1.86594e-46
-2.88994e-47
-6.18206e-48
-6.40141e-49
-1.37484e-49
-1.8281e-50
-3.89814e-51
-3.81642e-52
-8.16022e-53
-9.50471e-54
-2.0226e-54
-1.86483e-55
-3.97417e-56
-4.11644e-57
-8.74371e-58
-7.56957e-59
-1.60886e-59
-1.49846e-60
-3.1775e-61
-2.57649e-62
-5.46523e-63
-4.61205e-64
-1.29813e-64
-2.36556e-66
-4.62869e-65
5.83558e-65
6.40016e-65
1.66477e-63
1.24691e-64
7.89057e-64
1.01011e-66
-2.48946e-63
-9.43627e-65
-1.72335e-63
-7.57431e-65
-3.10789e-65
3.68275e-66
8.64507e-64
7.3076e-65
1.47402e-63
1.1771e-65
-7.95083e-64
-6.17205e-65
-8.15032e-64
-2.77218e-65
8.21728e-64
3.0964e-65
8.67702e-64
3.92097e-65
6.62964e-64
1.02905e-66
-6.29891e-64
-1.24121e-65
-1.99219e-65
5.54114e-66
-3.71721e-66
-6.93556e-64
5.0363e-65
-7.77726e-64
-4.97812e-64
6.05388e-64
3.37697e-62
7.54306e-64
3.62821e-63
4.4912e-65
1.01408e-63
-2.88085e-65
-4.47966e-65
8.41401e-65
2.45653e-63
6.25985e-66
1.79675e-65
-2.19345e-63
8.99699e-42
-3.54818e-43
2.23972e-43
-1.3712e-44
8.93269e-45
-3.17122e-46
2.11059e-46
-1.06053e-47
6.98627e-48
-2.34169e-49
1.55843e-49
-6.68947e-51
4.41518e-51
-1.39407e-52
9.26499e-53
-3.47331e-54
2.29493e-54
-6.80505e-56
4.51804e-56
-1.50259e-57
9.93523e-58
-2.75987e-59
1.83096e-59
-5.46438e-61
3.61479e-61
-9.38671e-63
6.2238e-63
-1.68095e-64
1.10751e-64
-2.61123e-66
1.11495e-66
9.53821e-67
9.90645e-67
2.85172e-65
1.87249e-66
1.35194e-65
1.53321e-68
-4.26424e-65
-1.41771e-66
-2.95173e-65
-1.16247e-66
-5.30871e-67
3.11208e-68
1.47929e-65
1.12123e-66
2.45497e-65
2.01645e-67
-1.3639e-65
-9.26494e-67
-1.39656e-65
-4.4042e-67
1.40738e-65
4.65599e-67
1.48473e-65
6.37171e-67
1.06711e-65
1.62549e-68
-1.01086e-65
-2.12277e-67
-3.2591e-67
4.88757e-68
-5.46976e-68
-1.11959e-65
1.01074e-66
-1.24277e-65
-6.43624e-66
9.83931e-66
6.43254e-64
1.2082e-65
6.42407e-65
6.83712e-67
1.74911e-65
-4.04782e-67
-1.47213e-66
1.31203e-66
4.20641e-65
7.07999e-68
3.13692e-67
-3.69112e-65
2.51094e-41
8.91304e-43
6.23136e-43
5.62309e-44
2.48687e-44
1.37491e-45
5.86192e-46
4.65622e-47
1.94143e-47
1.03202e-48
4.32259e-49
2.94777e-50
1.22519e-50
6.15332e-52
2.56708e-52
1.5325e-53
6.36085e-54
3.00649e-55
1.25071e-55
6.63659e-57
2.75102e-57
1.22027e-58
5.06472e-59
2.41563e-60
1.00007e-60
4.1532e-62
1.72045e-62
7.43684e-64
3.075e-64
1.19321e-65
4.9237e-66
2.09641e-67
9.5279e-68
4.31306e-67
3.03338e-68
2.02992e-67
2.56478e-70
-6.40506e-67
-2.20609e-68
-4.43598e-67
-1.79816e-68
-8.00334e-69
5.92496e-70
2.23013e-67
1.73441e-68
3.90507e-67
3.0299e-69
-2.04114e-67
-1.44197e-68
-2.09699e-67
-6.74823e-69
2.11414e-67
7.24437e-69
2.23762e-67
9.70278e-69
1.81432e-67
2.48162e-70
-1.72904e-67
-3.23753e-69
-5.57309e-69
1.17397e-70
-7.88963e-70
-1.93192e-67
1.6768e-68
-2.11754e-67
-6.73529e-68
1.71477e-67
1.03593e-65
2.07096e-67
9.94254e-67
1.13926e-68
2.65365e-67
-6.37063e-69
1.39406e-70
2.0209e-68
6.32298e-67
1.19627e-69
4.19139e-69
-5.75201e-67
-8.55063e-42
3.22901e-43
-2.12198e-43
2.6581e-44
-8.46819e-45
6.62052e-46
-1.9961e-46
2.25236e-47
-6.61096e-48
4.99366e-49
-1.47197e-49
1.42662e-50
-4.17222e-51
2.97729e-52
-8.74217e-53
7.4153e-54
-2.16627e-54
1.45443e-55
-4.25966e-56
3.21058e-57
-9.36986e-58
5.90222e-59
-1.72511e-59
1.16838e-60
-3.40655e-61
2.00848e-62
-5.86074e-63
3.59637e-64
-1.04759e-64
5.76886e-66
-1.68117e-66
9.42609e-68
-2.71548e-68
8.06181e-69
-3.34732e-73
3.17507e-69
-2.71114e-72
-9.95231e-69
-3.09582e-70
-6.8928e-69
-2.56785e-70
-1.24011e-70
3.85004e-72
3.46407e-69
2.47626e-70
5.97592e-69
4.7086e-71
-3.17401e-69
-2.02149e-70
-3.25929e-69
-9.90869e-71
3.28483e-69
1.01708e-70
3.47547e-69
1.4499e-70
2.72849e-69
3.62454e-72
-2.59671e-69
-5.02844e-71
-8.50667e-71
-7.13863e-72
-1.03414e-71
-2.91702e-69
2.95161e-70
-3.16902e-69
-4.90305e-70
2.60415e-69
1.77722e-67
3.10717e-69
1.60061e-68
1.63919e-70
4.15454e-69
-8.40985e-71
-9.03694e-71
2.92365e-70
9.82347e-69
1.24774e-71
6.49507e-71
-8.8514e-69
-2.56017e-41
-1.32181e-42
-6.35274e-43
-5.98922e-44
-2.53527e-44
-1.41684e-45
-5.97551e-46
-4.76073e-47
-1.97909e-47
-1.05364e-48
-4.40622e-49
-3.00916e-50
-1.24894e-50
-6.27932e-52
-2.61677e-52
-1.56402e-53
-6.48427e-54
-3.06756e-55
-1.27497e-55
-6.77191e-57
-2.80452e-57
-1.24491e-58
-5.16323e-59
-2.46454e-60
-1.01957e-60
-4.23663e-62
-1.75403e-62
-7.58655e-64
-3.13527e-64
-1.21696e-65
-5.03085e-66
-1.9836e-67
-8.18912e-68
-2.86993e-69
-1.21761e-69
4.37767e-74
-1.8167e-71
-1.40167e-70
-4.64268e-72
-9.67009e-71
-3.63804e-72
-1.74369e-72
6.2331e-74
4.87284e-71
3.50497e-72
8.7819e-71
6.60447e-73
-4.43651e-71
-2.86732e-72
-4.56907e-71
-1.39805e-72
4.6062e-71
1.44268e-72
4.88751e-71
2.04154e-72
4.21665e-71
5.09284e-74
-4.03061e-71
-7.13858e-73
-1.32235e-72
-2.47908e-73
-1.33719e-73
-4.55952e-71
4.52194e-72
-4.90305e-71
6.83611e-73
4.1019e-71
2.67688e-69
4.83003e-71
2.31996e-70
2.47916e-72
5.88312e-71
-1.1924e-72
2.84793e-72
4.13266e-72
1.37835e-70
1.82882e-73
8.04783e-73
-1.27962e-70
9.09711e-42
-5.57545e-43
2.25758e-43
-2.1871e-44
9.00887e-45
-5.07987e-46
2.12358e-46
-1.69893e-47
7.03313e-48
-3.75779e-49
1.56601e-49
-1.07306e-50
4.43888e-51
-2.2392e-52
9.30128e-53
-5.57722e-54
2.30491e-54
-1.0939e-55
4.53248e-56
-2.41487e-57
9.97048e-58
-4.43945e-59
1.83579e-59
-8.7887e-61
3.62532e-61
-1.51084e-62
6.23746e-63
-2.70546e-64
1.115e-64
-4.33989e-66
1.7893e-66
-7.07397e-68
2.9129e-68
-1.05545e-69
4.35272e-70
-1.51231e-71
6.48061e-72
-2.19577e-72
3.2617e-74
-1.37291e-72
-4.69711e-74
-2.46749e-74
1.20512e-76
6.90508e-73
4.64732e-74
1.23808e-72
9.35805e-75
-6.28597e-73
-3.74339e-74
-6.47444e-73
-1.8967e-74
6.5254e-73
1.88593e-74
6.92514e-73
2.8082e-74
5.91219e-73
6.87507e-76
-5.64976e-73
-1.01202e-74
-1.87931e-74
-5.15552e-75
-1.53984e-75
-6.42233e-73
7.10386e-74
-6.85273e-73
1.3693e-73
5.80644e-73
4.16535e-71
6.76791e-73
3.41409e-72
3.35547e-74
8.40269e-73
-1.47175e-74
3.43145e-74
5.53992e-74
1.95275e-72
1.70086e-75
1.10822e-74
-1.80733e-72
2.651e-41
9.35118e-43
6.57492e-43
5.91051e-44
2.62427e-44
1.44469e-45
6.18291e-46
4.8934e-47
2.04797e-47
1.08422e-48
4.55812e-49
3.09724e-50
1.29207e-50
6.46356e-52
2.70643e-52
1.60992e-53
6.70668e-54
3.15769e-55
1.31841e-55
6.97085e-57
2.90011e-57
1.28151e-58
5.33819e-59
2.53699e-60
1.05412e-60
4.36125e-62
1.81317e-62
7.80968e-64
3.24091e-64
1.25277e-65
5.19962e-66
2.04199e-67
8.46388e-68
3.05052e-69
1.26426e-69
4.54707e-71
1.88223e-71
6.05416e-73
2.60518e-73