/*--------------------------------*- C++ -*----------------------------------*\
| =========                 |                                                 |
| \\      /  F ield         | OpenFOAM: The Open Source CFD Toolbox           |
|  \\    /   O peration     | Version:  2.4.0                                 |
|   \\  /    A nd           | Web:      www.OpenFOAM.org                      |
|    \\/     M anipulation  |                                                 |
\*---------------------------------------------------------------------------*/
FoamFile
{
    version     2.0;
    format      ascii;
    class       volVectorField;
    location    "0.1";
    object      U;
}
// * * * * * * * * * * * * * * * * * * * * * * * * * * * * * * * * * * * * * //

dimensions      [0 1 -1 0 0 0 0];

internalField   nonuniform List<vector> 
1935
(
(1.13496e-37 5.139e-43 0)
(2.93048e-39 -2.67062e-39 0)
(3.11006e-40 -9.30201e-41 0)
(4.12795e-41 -9.35202e-40 0)
(3.35599e-40 -1.72067e-38 0)
(-2.11058e-37 -8.15422e-37 0)
(-2.76063e-35 -1.01432e-35 0)
(-2.70377e-33 -4.93582e-34 0)
(-1.76835e-31 -6.54094e-34 0)
(-2.6846e-33 -3.28107e-32 0)
(9.14798e-34 -2.05627e-31 0)
(-3.80787e-35 -1.35544e-29 0)
(-1.90698e-33 2.66366e-31 0)
(-1.03741e-36 1.38254e-29 0)
(9.61407e-34 2.1093e-31 0)
(1.96003e-35 3.39807e-32 0)
(-1.69755e-37 1.36005e-33 0)
(-2.02604e-35 3.76092e-32 0)
(-1.06354e-33 1.97618e-31 0)
(1.17186e-33 1.53663e-29 0)
(3.3052e-33 -1.64622e-29 0)
(-1.12608e-33 -3.20757e-29 0)
(-3.37282e-33 -3.13803e-31 0)
(1.1987e-33 1.63165e-29 0)
(3.4973e-33 -1.74871e-29 0)
(-2.3934e-33 -3.39621e-29 0)
(-2.36763e-33 1.69652e-29 0)
(1.11231e-33 -7.71744e-32 0)
(-3.83238e-33 2.50112e-31 0)
(-2.5242e-31 -5.3716e-31 0)
(-3.89707e-33 -1.83177e-29 0)
(-1.31245e-33 -2.79469e-31 0)
(-2.62932e-35 -4.49051e-32 0)
(-2.11067e-36 -8.86896e-34 0)
(2.8273e-39 -1.51403e-34 0)
(2.32662e-36 -9.12985e-34 0)
(2.67606e-35 -4.94945e-32 0)
(1.40168e-33 -2.60813e-31 0)
(-1.53238e-33 -2.02509e-29 0)
(-4.34615e-33 2.15239e-29 0)
(1.44371e-33 4.21496e-29 0)
(2.93715e-33 6.88735e-31 0)
(5.78402e-35 1.05708e-31 0)
(2.02765e-36 -5.44301e-43 0)
(7.15471e-35 -5.62317e-43 0)
(8.54578e-34 -2.31699e-44 0)
(3.14273e-32 -1.01174e-44 0)
(5.31903e-38 -9.99804e-38 0)
(1.71415e-36 -1.72319e-36 0)
(2.08443e-35 -6.05895e-35 0)
(6.5904e-34 -7.03097e-34 0)
(5.26968e-39 -2.56456e-39 0)
(1.68213e-37 -4.51786e-38 0)
(1.69588e-36 -1.45043e-36 0)
(5.05305e-35 -1.70633e-35 0)
(1.65475e-40 6.48879e-40 0)
(3.88296e-39 -3.53526e-39 0)
(3.93309e-38 -1.43041e-37 0)
(1.05915e-36 -1.43582e-36 0)
(4.06066e-40 1.67598e-38 0)
(-8.88627e-40 1.72417e-38 0)
(1.017e-39 -2.6546e-39 0)
(5.76317e-38 -3.33962e-38 0)
(-2.08742e-37 7.95013e-37 0)
(-2.84049e-38 8.20256e-37 0)
(-2.04935e-38 2.85839e-38 0)
(4.38948e-40 9.81644e-40 0)
(-2.74397e-35 9.5007e-36 0)
(-1.9107e-36 9.82242e-36 0)
(-9.8149e-37 3.46644e-37 0)
(-3.38434e-38 2.85003e-38 0)
(-2.6945e-33 4.63938e-34 0)
(-9.03576e-35 4.77252e-34 0)
(-1.29178e-35 1.42963e-35 0)
(-4.23828e-37 1.19079e-36 0)
(-1.764e-31 -2.14459e-35 0)
(-4.22899e-33 -1.80437e-36 0)
(-6.15225e-34 -5.57993e-38 0)
(-1.73791e-35 -3.19707e-39 0)
(-1.97216e-33 -1.39582e-33 0)
(-6.60714e-35 -5.53819e-34 0)
(-1.08182e-35 -1.64417e-35 0)
(-3.58741e-37 -1.31514e-36 0)
(3.53312e-32 -5.91731e-33 0)
(1.00126e-33 -1.08948e-34 0)
(8.71435e-35 -1.54075e-36 0)
(2.4545e-36 -3.37736e-38 0)
(-1.42431e-33 -2.75263e-31 0)
(-4.43309e-35 -3.88903e-33 0)
(-3.88055e-36 -4.15474e-35 0)
(-1.15768e-37 -9.26818e-38 0)
(-7.15533e-32 5.4487e-33 0)
(-2.03078e-33 7.85591e-35 0)
(-1.78462e-34 8.68425e-37 0)
(-5.04067e-36 4.33243e-39 0)
(-4.21087e-35 2.80844e-31 0)
(-5.00603e-36 3.97024e-33 0)
(-4.07358e-37 4.2454e-35 0)
(-1.73511e-38 9.68857e-38 0)
(3.60719e-32 6.05903e-33 0)
(1.02357e-33 1.04096e-34 0)
(8.99165e-35 1.30302e-36 0)
(2.53923e-36 1.03086e-38 0)
(7.38612e-34 9.50957e-34 0)
(2.48314e-35 7.81409e-35 0)
(2.14804e-36 2.18983e-36 0)
(6.65913e-38 1.26932e-37 0)
(-6.55565e-36 4.46387e-35 0)
(-2.1016e-37 3.71755e-36 0)
(-2.18284e-38 1.14931e-37 0)
(-6.63136e-40 6.55797e-39 0)
(-7.61482e-34 1.04837e-33 0)
(-2.56503e-35 8.60387e-35 0)
(-2.1759e-36 2.40399e-36 0)
(-6.74505e-38 1.39361e-37 0)
(-3.98978e-32 5.70343e-33 0)
(-1.12716e-33 2.26309e-35 0)
(-9.90169e-35 -1.20015e-36 0)
(-2.78843e-36 -1.43384e-37 0)
(4.39775e-32 3.09717e-31 0)
(1.25708e-33 4.27922e-33 0)
(1.10392e-34 4.39102e-35 0)
(3.13172e-36 -5.42694e-38 0)
(1.24015e-31 -3.36738e-31 0)
(3.51938e-33 -4.85448e-33 0)
(3.09238e-34 -5.36534e-35 0)
(8.73376e-36 -2.68286e-37 0)
(-4.22504e-32 -6.53568e-31 0)
(-1.19904e-33 -9.25749e-33 0)
(-1.05325e-34 -9.91626e-35 0)
(-2.97457e-36 -2.30233e-37 0)
(-1.26547e-31 -8.95993e-33 0)
(-3.5903e-33 -3.05226e-34 0)
(-3.15395e-34 -6.79843e-36 0)
(-8.90584e-36 -3.22551e-37 0)
(4.49734e-32 3.28262e-31 0)
(1.27633e-33 4.38621e-33 0)
(1.12078e-34 4.18214e-35 0)
(3.16515e-36 -3.49374e-37 0)
(1.31216e-31 -3.57408e-31 0)
(3.71854e-33 -5.07649e-33 0)
(3.26745e-34 -5.45622e-35 0)
(9.22001e-36 -1.36914e-37 0)
(-8.98008e-32 -6.90095e-31 0)
(-2.54393e-33 -9.83363e-33 0)
(-2.236e-34 -1.06795e-34 0)
(-6.30836e-36 -3.92309e-37 0)
(-8.88282e-32 3.402e-31 0)
(-2.52566e-33 4.76626e-33 0)
(-2.21893e-34 5.05513e-35 0)
(-6.27445e-36 1.04036e-37 0)
(4.31747e-32 5.95901e-35 0)
(1.21431e-33 -1.26074e-34 0)
(1.05628e-34 -4.20692e-36 0)
(2.96016e-36 -2.70655e-37 0)
(-2.10644e-33 5.66242e-33 0)
(-7.03664e-35 7.48436e-34 0)
(-1.34926e-35 2.10421e-35 0)
(-4.51766e-37 1.69705e-36 0)
(-2.04682e-31 -1.32279e-32 0)
(-4.69381e-33 -2.12254e-34 0)
(-7.61975e-34 -2.54387e-36 0)
(-2.15252e-35 -1.77777e-38 0)
(-4.53739e-33 -3.73101e-31 0)
(-1.48632e-34 -6.03235e-33 0)
(-2.0204e-35 -7.94233e-35 0)
(-6.55169e-37 -1.99868e-36 0)
(-4.77987e-32 -8.04549e-33 0)
(-1.35829e-33 -1.53584e-34 0)
(-1.2053e-34 -2.27947e-36 0)
(-3.41331e-36 -5.79848e-38 0)
(-9.79827e-34 -1.2578e-33 0)
(-3.29812e-35 -1.04431e-34 0)
(-2.88091e-36 -2.93478e-36 0)
(-8.95507e-38 -1.71736e-37 0)
(-8.1724e-35 -2.91095e-35 0)
(-2.68979e-36 -2.4756e-36 0)
(-2.80837e-37 -7.67737e-38 0)
(-8.71016e-39 -4.43958e-39 0)
(1.06901e-37 -4.83544e-36 0)
(3.92541e-39 -5.013e-37 0)
(3.46239e-40 -1.55525e-38 0)
(1.13853e-41 -9.59672e-40 0)
(9.00431e-35 -3.00007e-35 0)
(2.95446e-36 -2.47357e-36 0)
(3.06868e-37 -7.64628e-38 0)
(9.48805e-39 -4.34513e-39 0)
(1.00588e-33 -1.37942e-33 0)
(3.38866e-35 -1.1316e-34 0)
(2.87621e-36 -3.16112e-36 0)
(8.91732e-38 -1.83226e-37 0)
(5.25828e-32 -7.52697e-33 0)
(1.48558e-33 -3.07706e-35 0)
(1.30502e-34 1.5548e-36 0)
(3.67518e-36 1.87395e-37 0)
(-5.75074e-32 -4.08194e-31 0)
(-1.64388e-33 -5.64062e-33 0)
(-1.44361e-34 -5.78938e-35 0)
(-4.09547e-36 7.03839e-38 0)
(-1.63075e-31 4.40288e-31 0)
(-4.62829e-33 6.34943e-33 0)
(-4.06726e-34 7.02279e-35 0)
(-1.1488e-35 3.55347e-37 0)
(5.41656e-32 8.59213e-31 0)
(1.5315e-33 1.22693e-32 0)
(1.34634e-34 1.33486e-34 0)
(3.79385e-36 4.96053e-37 0)
(1.10209e-31 1.97515e-32 0)
(3.13338e-33 4.32842e-34 0)
(2.75259e-34 7.25935e-36 0)
(7.78293e-36 2.23613e-37 0)
(2.17643e-33 2.97227e-33 0)
(7.34014e-35 2.38901e-34 0)
(6.32162e-36 6.67588e-36 0)
(1.96486e-37 3.84924e-37 0)
(2.08609e-31 -2.49373e-43 0)
(1.07354e-29 -2.36358e-43 0)
(1.05571e-29 4.94516e-43 0)
(-1.05564e-29 4.92731e-43 0)
(-1.07057e-29 -2.44023e-43 0)
(6.83608e-34 -5.003e-43 0)
(1.07354e-29 -2.51123e-43 0)
(1.07643e-29 2.44066e-43 0)
(2.07883e-31 2.50904e-43 0)
(2.96507e-32 6.83859e-45 0)
(6.83536e-34 6.50614e-46 0)
(5.31717e-35 1.66307e-47 0)
(-1.20455e-36 2.0464e-48 0)
(-1.05275e-34 5.11847e-48 0)
(-1.31384e-33 3.06571e-47 0)
(-5.8619e-32 -2.28158e-44 0)
(-3.86166e-31 -1.02963e-42 0)
(-2.13214e-29 -2.32214e-41 0)
(-1.07354e-29 4.97152e-40 0)
(1.05571e-29 2.43312e-37 0)
(1.09137e-29 2.77652e-35 0)
(1.07937e-29 2.4121e-33 0)
(2.38165e-31 1.42301e-31 0)
(2.37977e-31 2.4121e-33 0)
(1.07657e-29 2.8008e-35 0)
(1.07651e-29 2.77652e-35 0)
(2.07607e-31 2.38434e-33 0)
(2.99902e-32 1.39889e-31 0)
(1.02419e-33 -1.39889e-31 0)
(-1.70467e-34 -2.38434e-33 0)
(1.36099e-33 -2.72724e-35 0)
(5.92603e-32 2.82199e-35 0)
(4.15639e-31 2.4727e-33 0)
(2.15016e-29 1.45877e-31 0)
(2.13797e-29 2.50046e-33 0)
(-9.99293e-30 2.44056e-33 0)
(1.04085e-29 1.42301e-31 0)
(-2.06298e-31 2.38457e-33 0)
(-2.11431e-29 -2.35761e-33 0)
(-4.01973e-31 -1.39892e-31 0)
(4.46103e-33 -2.60709e-32 0)
(1.64152e-31 -2.49109e-32 0)
(1.60324e-31 5.16661e-32 0)
(-1.60306e-31 5.16168e-32 0)
(-1.63531e-31 -2.55432e-32 0)
(1.66706e-35 -5.21977e-32 0)
(1.64154e-31 -2.61722e-32 0)
(1.64757e-31 2.54928e-32 0)
(4.44917e-33 2.61229e-32 0)
(6.211e-34 6.30129e-34 0)
(1.66688e-35 5.04398e-35 0)
(1.26989e-36 1.21026e-36 0)
(-3.15947e-38 1.94796e-37 0)
(-2.5117e-36 2.35064e-36 0)
(-3.2066e-35 9.96737e-35 0)
(-1.22556e-33 1.20988e-33 0)
(-8.27848e-33 5.16167e-32 0)
(-3.2508e-31 2.49118e-32 0)
(-1.64152e-31 -7.72597e-32 0)
(1.60322e-31 -5.28291e-32 0)
(1.67975e-31 -6.79367e-34 0)
(1.65033e-31 2.60809e-32 0)
(5.0857e-33 2.80239e-32 0)
(5.41774e-33 -2.54339e-32 0)
(1.64797e-31 -2.54913e-32 0)
(1.64768e-31 2.55457e-32 0)
(4.1134e-33 2.61817e-32 0)
(9.66109e-34 3.05332e-33 0)
(3.61707e-34 -2.37282e-33 0)
(-3.33292e-34 -5.87237e-35 0)
(2.54694e-35 -1.01815e-34 0)
(1.23252e-33 -1.23086e-33 0)
(8.54014e-33 -4.97273e-32 0)
(3.28956e-31 9.53217e-32 0)
(3.26644e-31 7.85249e-32 0)
(-1.48551e-31 2.68909e-32 0)
(1.57116e-31 -2.06387e-32 0)
(-4.06714e-33 7.62076e-32 0)
(-3.20916e-31 5.66281e-34 0)
(-9.20891e-33 -5.16785e-32 0)
(9.55633e-35 -5.37031e-34 0)
(1.64961e-33 -5.0883e-34 0)
(1.60324e-33 1.06245e-33 0)
(-1.60176e-33 1.06128e-33 0)
(-1.60157e-33 -5.24178e-34 0)
(1.34362e-36 -1.0754e-33 0)
(1.64971e-33 -5.39446e-34 0)
(1.69626e-33 5.22976e-34 0)
(9.43755e-35 5.38272e-34 0)
(4.80156e-35 1.52979e-35 0)
(1.34343e-36 1.20413e-36 0)
(1.25067e-37 3.17161e-38 0)
(-3.10278e-39 5.01015e-39 0)
(-2.47402e-37 6.1626e-38 0)
(-2.56161e-36 2.37666e-36 0)
(-9.46908e-35 2.93933e-35 0)
(-1.40857e-34 1.06128e-33 0)
(-3.29937e-33 5.08849e-34 0)
(-1.64959e-33 -1.58783e-33 0)
(1.60309e-33 -1.09072e-33 0)
(1.69599e-33 -1.58613e-35 0)
(1.73676e-33 5.43999e-34 0)
(1.43612e-34 8.75189e-34 0)
(1.50155e-34 -5.14841e-34 0)
(1.69914e-33 -5.22314e-34 0)
(1.69756e-33 5.24854e-34 0)
(8.71902e-35 5.45796e-34 0)
(5.55359e-35 3.5821e-34 0)
(8.8658e-36 -3.41709e-34 0)
(-6.95406e-36 -7.52069e-36 0)
(1.81777e-36 -3.01218e-36 0)
(8.78298e-35 -2.92196e-35 0)
(-1.65735e-34 -1.01513e-33 0)
(3.34961e-33 1.50894e-33 0)
(3.74749e-33 1.61944e-33 0)
(-1.41508e-33 5.64276e-34 0)
(1.60534e-33 -1.14273e-34 0)
(-8.44281e-35 1.56835e-33 0)
(-3.24957e-33 8.7648e-36 0)
(-2.70615e-34 -1.34552e-33 0)
(1.42982e-36 -4.48095e-35 0)
(1.21972e-35 -4.25238e-35 0)
(1.17973e-35 8.87482e-35 0)
(-1.17631e-35 8.86321e-35 0)
(-1.11886e-35 -4.37988e-35 0)
(3.11589e-38 -8.97857e-35 0)
(1.21993e-35 -4.50655e-35 0)
(1.31732e-35 4.36799e-35 0)
(1.40718e-36 4.49493e-35 0)
(1.0078e-36 1.2696e-36 0)
(3.11541e-38 1.19112e-37 0)
(2.89823e-39 3.13363e-39 0)
(-7.68771e-41 5.29404e-40 0)
(-5.72863e-39 6.07659e-39 0)
(-5.94057e-38 2.35103e-37 0)
(-1.98451e-36 2.42027e-36 0)
(-1.80937e-36 8.86319e-35 0)
(-2.49674e-35 4.25261e-35 0)
(-1.21965e-35 -1.32666e-34 0)
(1.17927e-35 -9.10582e-35 0)
(1.25859e-35 -1.37276e-36 0)
(1.35892e-35 4.49095e-35 0)
(2.4433e-36 5.11363e-35 0)
(3.01253e-36 -4.34816e-35 0)
(1.32496e-35 -4.36628e-35 0)
(1.31947e-35 4.38182e-35 0)
(8.33959e-37 4.51346e-35 0)
(1.59976e-36 8.41234e-36 0)
(6.23161e-37 -7.02378e-36 0)
(-5.67971e-37 -1.84229e-37 0)
(3.07722e-38 -2.38563e-37 0)
(1.80419e-36 -1.87693e-36 0)
(-4.91075e-36 -8.14532e-35 0)
(2.54557e-35 2.73304e-34 0)
(3.46417e-35 1.38603e-34 0)
(-9.96431e-36 4.71969e-35 0)
(1.24188e-35 -3.15959e-35 0)
(-7.50393e-37 1.3067e-34 0)
(-2.40842e-35 1.19938e-36 0)
(-5.56832e-36 -9.11716e-35 0)
(5.64482e-38 -9.48357e-37 0)
(-5.63189e-38 -8.95186e-37 0)
(-5.66406e-38 1.87651e-36 0)
(5.84947e-38 1.87383e-36 0)
(1.11285e-37 -9.24861e-37 0)
(1.67867e-39 -1.90069e-36 0)
(-5.62031e-38 -9.54338e-37 0)
(-3.12993e-39 9.22103e-37 0)
(5.51928e-38 9.51649e-37 0)
(5.491e-38 2.955e-38 0)
(1.67839e-39 2.76189e-39 0)
(1.66851e-40 7.76091e-41 0)
(-4.36231e-42 1.29454e-41 0)
(-3.29867e-40 1.50538e-40 0)
(-3.18968e-39 5.44649e-39 0)
(-1.08146e-37 5.63424e-38 0)
(-5.56379e-38 1.87382e-36 0)
(5.99504e-38 8.95233e-37 0)
(5.63698e-38 -2.80413e-36 0)
(-5.68489e-38 -1.93028e-36 0)
(-5.61324e-38 -3.08253e-38 0)
(3.88686e-38 9.61036e-37 0)
(1.11618e-37 1.48927e-36 0)
(1.23343e-37 -9.07194e-37 0)
(5.64871e-40 -9.20564e-37 0)
(-1.5876e-39 9.26434e-37 0)
(4.28288e-38 9.65145e-37 0)
(6.78269e-38 5.7914e-37 0)
(1.4597e-38 -5.46831e-37 0)
(-1.2076e-38 -1.34656e-38 0)
(1.40847e-39 -6.54737e-39 0)
(9.36194e-38 -4.23535e-38 0)
(-4.97368e-37 -1.69759e-36 0)
(-5.48415e-38 5.69974e-36 0)
(6.54558e-37 2.9526e-36 0)
(1.1617e-37 1.0156e-36 0)
(-7.08762e-40 -2.47128e-37 0)
(-3.92413e-38 2.76688e-36 0)
(6.73122e-38 2.09862e-38 0)
(-2.31912e-37 -2.31432e-36 0)
(1.06773e-39 -5.19382e-38 0)
(-2.81848e-39 -4.91719e-38 0)
(-2.76729e-39 1.02999e-37 0)
(2.80915e-39 1.02844e-37 0)
(3.98306e-39 -5.07804e-38 0)
(3.80437e-41 -1.04286e-37 0)
(-2.81385e-39 -5.23729e-38 0)
(-1.69008e-39 5.06216e-38 0)
(1.11521e-39 5.2218e-38 0)
(1.16535e-39 1.59666e-39 0)
(3.80372e-41 1.59106e-40 0)
(3.74194e-42 4.41217e-42 0)
(-1.02749e-43 7.53488e-43 0)
(-7.39335e-42 8.55229e-42 0)
(-7.23267e-41 3.13819e-40 0)
(-2.29277e-39 3.03446e-39 0)
(-1.06871e-39 1.02843e-37 0)
(4.46128e-39 4.91794e-38 0)
(2.81755e-39 -1.53938e-37 0)
(-2.77309e-39 -1.05886e-37 0)
(-2.87986e-39 -1.72051e-39 0)
(-1.21099e-39 5.22567e-38 0)
(2.31495e-39 6.30717e-38 0)
(2.97417e-39 -5.02648e-38 0)
(-1.59653e-39 -5.05844e-38 0)
(-1.6637e-39 5.08206e-38 0)
(4.52377e-40 5.25436e-38 0)
(1.85175e-39 1.35361e-38 0)
(7.24467e-40 -1.17805e-38 0)
(-6.56542e-40 -3.23058e-40 0)
(2.01004e-41 -3.13535e-40 0)
(1.94131e-39 -1.65796e-39 0)
(-1.10287e-38 -8.90124e-38 0)
(-4.40326e-39 4.78401e-37 0)
(1.10479e-38 1.66225e-37 0)
(3.49486e-39 5.58638e-38 0)
(-1.51882e-39 -3.2368e-38 0)
(-3.51212e-40 1.51552e-37 0)
(4.96096e-39 1.51132e-39 0)
(-5.61367e-39 -1.09116e-37 0)
(-3.03812e-39 -2.80276e-40 0)
(-2.25606e-40 -9.98475e-40 0)
(-1.42477e-40 2.18705e-39 0)
(1.39442e-40 2.18254e-39 0)
(1.89111e-40 -1.07666e-39 0)
(1.55551e-42 -2.21523e-39 0)
(-1.40532e-40 -1.11277e-39 0)
(-9.38129e-41 1.0731e-39 0)
(4.55862e-41 1.1093e-39 0)
(4.84226e-41 3.62018e-41 0)
(1.55535e-42 3.56909e-42 0)
(1.56508e-43 1.03853e-43 0)
(-4.23256e-45 1.74862e-44 0)
(-3.09289e-43 2.01375e-43 0)
(-2.95396e-42 7.03476e-42 0)
(-9.52941e-41 6.88402e-41 0)
(-4.29018e-41 2.18249e-39 0)
(2.31822e-40 1.04036e-39 0)
(1.40688e-40 -3.26619e-39 0)
(-1.38048e-40 -2.25149e-39 0)
(-1.43667e-40 -3.77894e-41 0)
(-6.02313e-41 1.12074e-39 0)
(9.54115e-41 1.72997e-39 0)
(1.09158e-40 -1.05452e-39 0)
(-9.02978e-41 -1.07104e-39 0)
(-9.24597e-41 1.07876e-39 0)
(3.13587e-41 1.12599e-39 0)
(6.32689e-41 6.71046e-40 0)
(1.64022e-41 -6.31279e-40 0)
(-1.39769e-41 -1.66303e-41 0)
(5.59382e-43 -8.07021e-42 0)
(7.66532e-41 -3.57054e-41 0)
(-6.13274e-40 -1.84974e-39 0)
(-2.30201e-40 1.04808e-38 0)
(5.66532e-40 3.56513e-39 0)
(1.83545e-40 1.20432e-39 0)
(-8.47099e-41 -2.84395e-40 0)
(-2.7865e-41 3.22136e-39 0)
(2.38448e-40 2.72622e-41 0)
(-2.06139e-40 -2.68678e-39 0)
(-3.1437e-38 3.14046e-38 0)
(-8.69615e-40 1.57765e-39 0)
(-4.69832e-41 1.30435e-40 0)
(1.80508e-42 9.23587e-41 0)
(3.93605e-42 -4.47475e-41 0)
(3.27845e-44 -9.20907e-41 0)
(-2.97283e-42 -4.62616e-41 0)
(-2.0043e-42 4.46358e-41 0)
(9.41587e-43 4.61164e-41 0)
(1.00557e-42 1.48077e-42 0)
(3.38961e-44 1.493e-43 0)
(3.36e-45 4.27951e-45 0)
(-9.43176e-47 7.23135e-46 0)
(-6.63675e-45 8.29751e-45 0)
(-6.4427e-44 2.94337e-43 0)
(-1.97734e-42 2.81247e-42 0)
(-8.80866e-43 9.07559e-41 0)
(4.91984e-42 4.32998e-41 0)
(2.97611e-42 -1.35836e-40 0)
(-2.91731e-42 -9.35759e-41 0)
(-3.05157e-42 -1.58505e-42 0)
(-1.60369e-42 4.62472e-41 0)
(1.97778e-42 5.8913e-41 0)
(2.55871e-42 -4.42065e-41 0)
(-1.92035e-42 -4.45886e-41 0)
(-1.98125e-42 4.48347e-41 0)
(3.58206e-43 4.65047e-41 0)
(1.61065e-42 1.51843e-41 0)
(6.38986e-43 -1.35544e-41 0)
(-5.78176e-43 -3.84766e-43 0)
(2.65092e-45 -2.8755e-43 0)
(1.54402e-42 -9.16195e-43 0)
(-1.33514e-41 -7.30553e-41 0)
(-4.88756e-42 5.81454e-40 0)
(1.22534e-41 1.52117e-40 0)
(3.59626e-42 5.02193e-41 0)
(-1.79838e-42 -2.49644e-41 0)
(-2.6707e-43 1.33717e-40 0)
(5.34117e-42 1.368e-42 0)
(-4.83843e-42 -9.92727e-41 0)
(-1.31265e-36 -8.76002e-41 0)
(-3.30707e-38 -4.34782e-42 0)
(-1.70876e-39 1.80223e-42 0)
(-4.15916e-41 1.88071e-42 0)
(-1.55619e-42 -9.28838e-43 0)
(-3.82825e-44 -1.91267e-42 0)
(-1.01647e-43 -9.60958e-43 0)
(-6.78189e-44 9.25573e-43 0)
(3.16306e-44 9.57842e-43 0)
(3.37654e-44 3.22743e-44 0)
(1.12122e-45 3.20569e-45 0)
(1.115e-46 9.52838e-47 0)
(-3.08699e-48 1.58468e-47 0)
(-2.20273e-46 1.84824e-46 0)
(-2.13076e-45 6.31649e-45 0)
(-6.64126e-44 6.13481e-44 0)
(-2.96058e-44 1.8835e-42 0)
(1.66208e-43 8.96404e-43 0)
(1.00439e-43 -2.8186e-42 0)
(-9.84541e-44 -1.94499e-42 0)
(-1.02753e-43 -3.36233e-44 0)
(-4.67285e-44 9.68635e-43 0)
(6.64094e-44 1.50486e-42 0)
(7.83201e-44 -9.08371e-43 0)
(-6.519e-44 -9.23647e-43 0)
(-6.68731e-44 9.30736e-43 0)
(1.94422e-44 9.73277e-43 0)
(4.64733e-44 5.91265e-43 0)
(1.38288e-44 -5.55789e-43 0)
(-1.20259e-44 -1.53498e-44 0)
(-1.26047e-46 -6.90322e-45 0)
(4.88738e-44 -1.78759e-44 0)
(-5.57583e-43 -1.4728e-42 0)
(-1.65135e-43 1.26562e-41 0)
(5.19973e-43 3.19926e-42 0)
(1.3192e-43 1.05718e-42 0)
(-6.05757e-44 -2.2842e-43 0)
(-1.67838e-44 2.77931e-42 0)
(1.72933e-43 2.44979e-44 0)
(-1.48056e-43 -2.32795e-42 0)
(-2.79536e-38 -3.46148e-38 0)
(-7.75927e-40 -1.74888e-39 0)
(-4.04455e-41 -4.24544e-41 0)
(-1.05354e-42 -1.63914e-42 0)
(-4.01539e-44 -7.07643e-44 0)
(-1.02686e-45 -6.55437e-44 0)
(-2.0422e-45 -3.22977e-44 0)
(-1.35799e-45 3.1097e-44 0)
(6.30942e-46 3.21653e-44 0)
(6.75346e-46 1.06766e-45 0)
(2.32723e-47 1.0638e-46 0)
(2.27363e-48 3.11728e-48 0)
(-6.47842e-50 5.14643e-49 0)
(-4.48987e-48 6.04824e-48 0)
(-4.42676e-47 2.09656e-46 0)
(-1.32749e-45 2.0291e-45 0)
(-5.88788e-46 6.32659e-44 0)
(3.32447e-45 3.01333e-44 0)
(2.00936e-45 -9.46799e-44 0)
(-1.96855e-45 -6.53003e-44 0)
(-2.06231e-45 -1.13387e-45 0)
(-1.10304e-45 3.23324e-44 0)
(1.32737e-45 4.33022e-44 0)
(1.73196e-45 -3.07181e-44 0)
(-1.29897e-45 -3.10559e-44 0)
(-1.34193e-45 3.12477e-44 0)
(2.2518e-46 3.25078e-44 0)
(1.09663e-45 1.27896e-44 0)
(4.44539e-46 -1.16156e-44 0)
(-4.02589e-46 -3.39146e-46 0)
(-8.7471e-48 -1.98639e-46 0)
(9.38599e-46 -2.1976e-46 0)
(-1.17757e-44 -4.66051e-44 0)
(-3.30278e-45 5.29114e-43 0)
(1.10134e-44 1.10325e-43 0)
(2.50367e-45 3.56336e-44 0)
(-1.20481e-45 -1.49856e-44 0)
(-1.61233e-46 9.32131e-44 0)
(3.62018e-45 9.47619e-46 0)
(-3.27806e-45 -7.12824e-44 0)
(1.32546e-37 -6.93913e-40 0)
(3.22828e-39 -3.30083e-41 0)
(1.29817e-40 -8.58883e-43 0)
(3.01906e-42 -3.45633e-44 0)
(1.0028e-43 -1.51036e-45 0)
(2.20855e-45 -1.31494e-45 0)
(5.85948e-48 -6.4621e-46 0)
(-3.70001e-47 6.21225e-46 0)
(1.78513e-47 6.43403e-46 0)
(1.90566e-47 2.2162e-47 0)
(6.4812e-49 2.1694e-48 0)
(6.28374e-50 6.53569e-50 0)
(-1.76923e-51 1.0603e-50 0)
(-1.24104e-49 1.26869e-49 0)
(-1.23328e-48 4.27371e-48 0)
(-3.74656e-47 4.2158e-47 0)
(-1.66435e-47 1.26471e-45 0)
(9.38345e-47 6.01183e-46 0)
(5.67092e-47 -1.8924e-45 0)
(-5.55611e-47 -1.30696e-45 0)
(-5.80953e-47 -2.30101e-47 0)
(-2.77255e-47 6.51475e-46 0)
(3.74621e-47 1.02458e-45 0)
(4.54815e-47 -6.08836e-46 0)
(-3.67572e-47 -6.19874e-46 0)
(-3.78045e-47 6.24804e-46 0)
(9.67478e-48 6.54553e-46 0)
(2.75411e-47 4.11e-46 0)
(9.13259e-48 -3.8667e-46 0)
(-8.06183e-48 -1.10746e-47 0)
(-3.79504e-49 -4.42624e-48 0)
(2.46732e-47 -2.77503e-48 0)
(-3.96543e-46 -8.95672e-46 0)
(-9.32204e-47 1.11766e-44 0)
(3.7514e-46 2.24084e-45 0)
(7.59379e-47 7.2168e-46 0)
(-3.38468e-47 -1.3655e-46 0)
(-8.05075e-48 1.8659e-45 0)
(9.88708e-47 1.65192e-47 0)
(-8.60616e-47 -1.57583e-45 0)
(-6.27586e-39 6.18358e-39 0)
(-1.59436e-40 3.63005e-40 0)
(-6.44386e-42 8.81215e-42 0)
(-1.54988e-43 2.97224e-43 0)
(-5.17515e-45 6.55794e-45 0)
(-1.17324e-46 1.51047e-46 0)
(-4.42713e-48 -1.43098e-47 0)
(-8.02122e-49 1.76345e-47 0)
(3.37538e-49 1.81566e-47 0)
(3.63597e-49 6.17235e-49 0)
(1.27309e-50 5.9954e-50 0)
(1.21018e-51 1.78335e-51 0)
(-3.48392e-53 2.85252e-52 0)
(-2.38939e-51 3.46333e-51 0)
(-2.42514e-50 1.1813e-49 0)
(-7.14567e-49 1.17453e-48 0)
(-3.16167e-49 3.56939e-47 0)
(1.78961e-48 1.69785e-47 0)
(1.08182e-48 -5.34096e-47 0)
(-1.05945e-48 -3.68713e-47 0)
(-1.11132e-48 -6.50075e-49 0)
(-6.04562e-49 1.82947e-47 0)
(7.14498e-49 2.56773e-47 0)
(9.42633e-49 -1.72777e-47 0)
(-6.98629e-49 -1.75094e-47 0)
(-7.22932e-49 1.76265e-47 0)
(1.10807e-49 1.83892e-47 0)
(6.00995e-49 8.4392e-48 0)
(2.5008e-49 -7.76209e-48 0)
(-2.26997e-49 -2.32146e-49 0)
(-1.06716e-50 -1.0747e-49 0)
(4.45738e-49 1.28072e-49 0)
(-8.02545e-48 -2.35375e-47 0)
(-1.77777e-48 3.76628e-46 0)
(7.61353e-48 6.49828e-47 0)
(1.39532e-48 2.04537e-47 0)
(-6.41857e-49 -7.12478e-48 0)
(-7.48114e-50 5.25943e-47 0)
(1.95865e-48 5.19981e-49 0)
(-1.7857e-48 -4.13891e-47 0)
(-2.74783e-37 -6.02543e-41 0)
(-6.71375e-39 -4.7372e-42 0)
(-2.72457e-40 -1.18035e-43 0)
(-6.35937e-42 -4.03118e-45 0)
(-2.1296e-43 -9.00826e-47 0)
(-4.71197e-45 -3.26798e-48 0)
(-1.34586e-46 -4.0157e-49 0)
(-2.82607e-48 3.32979e-49 0)
(-6.16778e-50 3.46426e-49 0)
(7.48119e-51 1.21242e-50 0)
(2.76287e-52 1.15468e-51 0)
(2.81626e-53 3.50793e-53 0)
(-8.29484e-55 5.50554e-54 0)
(-5.67091e-53 6.81622e-53 0)
(-5.84387e-52 2.27445e-51 0)
(-1.74006e-50 2.30967e-50 0)
(-7.70907e-51 6.80814e-49 0)
(4.35752e-50 3.23323e-49 0)
(2.634e-50 -1.01857e-48 0)
(-2.57966e-50 -7.03961e-49 0)
(-2.70188e-50 -1.25357e-50 0)
(-1.34867e-50 3.5133e-49 0)
(1.7399e-50 5.61544e-49 0)
(2.17245e-50 -3.27144e-49 0)
(-1.70445e-50 -3.33558e-49 0)
(-1.75763e-50 3.36265e-49 0)
(3.8986e-51 3.52928e-49 0)
(1.3402e-50 2.3104e-49 0)
(4.85489e-51 -2.17761e-49 0)
(-4.3356e-51 -6.42601e-51 0)
(-3.26357e-52 -2.21413e-51 0)
(9.93312e-51 3.70495e-51 0)
(-2.26942e-49 -4.25507e-49 0)
(-4.32863e-50 7.62374e-48 0)
(2.1696e-49 1.26264e-48 0)
(3.61476e-50 3.94867e-49 0)
(-1.55524e-50 -6.23176e-50 0)
(-3.08679e-51 1.00437e-48 0)
(4.64957e-50 8.71832e-51 0)
(-4.11492e-50 -8.57624e-49 0)
(-8.83298e-40 -6.26134e-39 0)
(-2.72186e-41 -3.69629e-40 0)
(-1.05104e-42 -8.98426e-42 0)
(-2.86394e-44 -3.03865e-43 0)
(-9.24566e-46 -6.73217e-45 0)
(-2.28749e-47 -1.92311e-46 0)
(-6.36449e-49 -4.0217e-48 0)
(-1.47601e-50 -9.18109e-50 0)
(-2.03584e-52 6.47408e-51 0)
(1.5275e-52 2.48675e-52 0)
(5.51299e-54 2.66043e-53 0)
(5.1706e-55 8.07438e-55 0)
(-1.51386e-56 1.26525e-55 0)
(-1.02687e-54 1.60043e-54 0)
(-1.08271e-53 5.39799e-53 0)
(-3.14615e-52 5.5655e-52 0)
(-1.38928e-52 1.65782e-50 0)
(7.8781e-52 7.87734e-51 0)
(4.7631e-52 -2.48023e-50 0)
(-4.66311e-52 -1.7136e-50 0)
(-4.89727e-52 -3.04987e-52 0)
(-2.71765e-52 8.52197e-51 0)
(3.14585e-52 1.25023e-50 0)
(4.2051e-52 -8.00068e-51 0)
(-3.07249e-52 -8.12782e-51 0)
(-3.18504e-52 8.18539e-51 0)
(4.33289e-53 8.56316e-51 0)
(2.70231e-52 4.48294e-51 0)
(1.15757e-52 -4.16359e-51 0)
(-1.05395e-52 -1.27197e-52 0)
(-7.44366e-54 -4.65786e-53 0)
(1.66568e-52 1.82665e-52 0)
(-4.36716e-51 -9.48003e-51 0)
(-7.8254e-52 2.15677e-49 0)
(4.18533e-51 3.16261e-50 0)
(6.37896e-52 9.66247e-51 0)
(-2.79592e-52 -2.70046e-51 0)
(-2.67458e-53 2.44316e-50 0)
(8.6757e-52 2.30891e-52 0)
(-7.97323e-52 -1.9769e-50 0)
(1.384e-37 -6.29452e-42 0)
(3.38114e-39 -3.85695e-42 0)
(1.37207e-40 -1.09837e-43 0)
(3.20232e-42 -3.71802e-45 0)
(1.07239e-43 -8.72175e-47 0)
(2.37271e-45 -2.45991e-48 0)
(6.776e-47 -5.37208e-50 0)
(1.41415e-48 -1.17414e-51 0)
(3.52272e-50 1.25763e-52 0)
(6.94369e-52 4.81557e-54 0)
(1.53738e-53 4.85173e-55 0)
(2.91261e-55 1.49284e-56 0)
(5.24094e-57 2.28196e-57 0)
(-2.12683e-56 2.94657e-56 0)
(-2.29881e-55 9.77467e-55 0)
(-6.73487e-54 1.03114e-53 0)
(-2.97697e-54 2.99752e-52 0)
(1.68625e-53 1.42245e-52 0)
(1.01948e-53 -4.48394e-52 0)
(-9.98115e-54 -3.10085e-52 0)
(-1.04706e-53 -5.56013e-54 0)
(-5.45574e-54 1.54986e-52 0)
(6.73425e-54 2.5252e-52 0)
(8.64159e-54 -1.43761e-52 0)
(-6.58629e-54 -1.46816e-52 0)
(-6.8098e-54 1.4802e-52 0)
(1.27887e-54 1.55653e-52 0)
(5.42381e-54 1.0687e-52 0)
(2.11644e-54 -1.0097e-52 0)
(-1.90768e-54 -3.057e-54 0)
(-1.86923e-55 -8.84151e-55 0)
(3.1721e-54 4.0109e-54 0)
(-1.06525e-52 -1.59077e-52 0)
(-1.67496e-53 4.15098e-51 0)
(1.02647e-52 5.84065e-52 0)
(1.44139e-53 1.76694e-52 0)
(-5.95426e-54 -2.17062e-53 0)
(-9.42267e-55 4.4221e-52 0)
(1.82202e-53 3.69189e-54 0)
(-1.6385e-53 -3.82605e-52 0)
(3.56586e-39 3.23001e-39 0)
(9.2831e-41 1.30568e-40 0)
(3.71273e-42 3.04579e-42 0)
(9.08168e-44 1.01973e-43 0)
(3.00628e-45 2.2561e-45 0)
(6.89669e-47 6.44245e-47 0)
(1.95208e-48 1.3445e-48 0)
(4.19219e-50 3.34901e-50 0)
(1.03743e-51 6.60114e-52 0)
(2.08791e-53 1.46147e-53 0)
(4.59682e-55 2.76905e-55 0)
(8.75387e-57 5.58944e-57 0)
(1.63868e-58 1.36787e-58 0)
(-3.59625e-58 6.09034e-58 0)
(-3.99862e-57 2.03353e-56 0)
(-1.14879e-55 2.18924e-55 0)
(-5.06425e-56 6.41638e-54 0)
(2.87604e-55 3.04613e-54 0)
(1.73912e-55 -9.59779e-54 0)
(-1.70214e-55 -6.63576e-54 0)
(-1.78971e-55 -1.18777e-55 0)
(-1.01577e-55 3.30808e-54 0)
(1.14869e-55 5.06241e-54 0)
(1.55861e-55 -3.08738e-54 0)
(-1.12053e-55 -3.14435e-54 0)
(-1.16382e-55 3.16756e-54 0)
(1.35294e-56 3.32285e-54 0)
(1.01035e-55 1.95296e-54 0)
(4.46386e-56 -1.82802e-54 0)
(-4.0784e-56 -5.69328e-56 0)
(-3.76388e-57 -1.63837e-56 0)
(4.84758e-56 1.20567e-55 0)
(-1.93855e-54 -3.02914e-54 0)
(-2.85664e-55 1.0128e-52 0)
(1.872e-54 1.28778e-53 0)
(2.42734e-55 3.80339e-54 0)
(-1.0098e-55 -8.10778e-55 0)
(-7.18882e-57 9.45812e-54 0)
(3.19005e-55 8.40923e-56 0)
(-2.95796e-55 -7.86405e-54 0)
(-3.83108e-41 1.77833e-40 0)
(-9.70103e-43 7.07225e-42 0)
(-3.99725e-44 1.73084e-43 0)
(-9.49819e-46 5.72672e-45 0)
(-3.16905e-47 1.31537e-46 0)
(-7.06035e-49 3.72473e-48 0)
(-1.98898e-50 8.00984e-50 0)
(-4.14781e-52 1.98393e-51 0)
(-1.0131e-53 3.99293e-53 0)
(-1.96312e-55 8.79373e-55 0)
(-4.2189e-57 1.66315e-56 0)
(-7.4003e-59 3.30723e-58 0)
(-1.5916e-60 6.46034e-60 0)
(-6.73506e-60 1.0537e-59 0)
(-7.58121e-59 3.45124e-58 0)
(-2.19133e-57 3.808e-57 0)
(-9.66709e-58 1.09447e-55 0)
(5.48538e-57 5.19037e-56 0)
(3.31694e-57 -1.63693e-55 0)
(-3.24649e-57 -1.13262e-55 0)
(-3.41086e-57 -2.03888e-57 0)
(-1.85248e-57 5.67079e-56 0)
(2.19114e-57 9.44289e-56 0)
(2.8884e-57 -5.2384e-56 0)
(-2.13943e-57 -5.35931e-56 0)
(-2.21804e-57 5.40342e-56 0)
(3.40643e-58 5.69355e-56 0)
(1.84245e-57 4.11844e-56 0)
(7.66525e-58 -3.90177e-56 0)
(-6.96215e-58 -1.20847e-57 0)
(-8.13767e-59 -2.85466e-58 0)
(7.81816e-58 2.3658e-57 0)
(-4.15624e-56 -4.63275e-56 0)
(-5.44836e-57 1.84331e-54 0)
(4.02964e-56 2.2497e-55 0)
(4.85864e-57 6.55732e-56 0)
(-1.91585e-57 -5.55335e-57 0)
(-2.23733e-58 1.61475e-55 0)
(6.00233e-57 1.27359e-57 0)
(-5.48216e-57 -1.41827e-55 0)
(-3.57967e-39 3.53916e-39 0)
(-9.33362e-41 1.43119e-40 0)
(-3.7206e-42 3.3335e-42 0)
(-9.12108e-44 1.11649e-43 0)
(-3.01779e-45 2.46724e-45 0)
(-6.94081e-47 7.0478e-47 0)
(-1.9666e-48 1.46946e-48 0)
(-4.23502e-50 3.66102e-50 0)
(-1.04999e-51 7.17584e-52 0)
(-2.11342e-53 1.58447e-53 0)
(-4.65625e-55 2.91135e-55 0)
(-8.74615e-57 5.76459e-57 0)
(-1.73169e-58 9.90682e-59 0)
(-3.13752e-60 1.96558e-60 0)
(-1.28884e-60 6.41491e-60 0)
(-3.51275e-59 7.21931e-59 0)
(-1.54619e-59 2.08758e-57 0)
(8.79204e-59 9.90314e-58 0)
(5.31726e-59 -3.1221e-57 0)
(-5.20293e-59 -2.15991e-57 0)
(-5.47699e-59 -3.87854e-59 0)
(-3.18696e-59 1.07951e-57 0)
(3.51235e-59 1.72056e-57 0)
(4.8461e-59 -1.00149e-57 0)
(-3.42178e-59 -1.02264e-57 0)
(-3.56137e-59 1.03041e-57 0)
(3.34492e-60 1.08392e-57 0)
(3.17106e-59 7.06865e-58 0)
(1.44682e-59 -6.65907e-58 0)
(-1.32673e-59 -2.11128e-59 0)
(-1.48483e-60 -4.7051e-60 0)
(1.04993e-59 5.61682e-59 0)
(-7.12316e-58 -7.47301e-58 0)
(-8.73232e-59 3.95275e-56 0)
(6.91919e-58 4.42722e-57 0)
(7.76775e-59 1.25854e-57 0)
(-3.05307e-59 -1.87165e-58 0)
(-1.31287e-60 3.0781e-57 0)
(9.83165e-59 2.53248e-59 0)
(-9.20546e-59 -2.62875e-57 0)
(-1.52033e-37 -3.95916e-39 0)
(-3.70678e-39 -1.64061e-40 0)
(-1.50481e-40 -3.85419e-42 0)
(-3.50681e-42 -1.29046e-43 0)
(-1.1748e-43 -2.8634e-45 0)
(-2.59624e-45 -8.17123e-47 0)
(-7.41687e-47 -1.70913e-48 0)
(-1.54646e-48 -4.25468e-50 0)
(-3.85305e-50 -8.36094e-52 0)
(-7.55241e-52 -1.84505e-53 0)
(-1.66768e-53 -3.3972e-55 0)
(-3.06428e-55 -6.72386e-57 0)
(-6.06752e-57 -1.15736e-58 0)
(-1.04265e-58 -2.06922e-60 0)
(-1.88842e-60 6.80119e-62 0)
(-6.32989e-61 1.17495e-60 0)
(-2.66059e-61 3.3463e-59 0)
(1.50919e-60 1.58605e-59 0)
(9.12738e-61 -5.00398e-59 0)
(-8.93118e-61 -3.46405e-59 0)
(-9.39727e-61 -6.24737e-61 0)
(-5.31461e-61 1.73775e-59 0)
(6.02993e-61 2.96433e-59 0)
(8.16392e-61 -1.59813e-59 0)
(-5.87759e-61 -1.63826e-59 0)
(-6.11062e-61 1.65173e-59 0)
(7.26107e-62 1.74417e-59 0)
(5.28816e-61 1.33402e-59 0)
(2.3277e-61 -1.26754e-59 0)
(-2.12782e-61 -4.00765e-61 0)
(-2.83024e-62 -7.48984e-62 0)
(1.3593e-61 1.00938e-60 0)
(-1.36071e-59 -1.00479e-59 0)
(-1.49894e-60 6.77501e-58 0)
(1.32576e-59 7.28878e-59 0)
(1.39354e-60 2.03813e-59 0)
(-5.212e-61 -8.85794e-61 0)
(-3.83592e-62 4.93781e-59 0)
(1.67265e-60 3.61029e-61 0)
(-1.55106e-60 -4.41036e-59 0)
(1.70571e-37 -1.095e-38 0)
(4.18075e-39 -5.70245e-40 0)
(1.69536e-40 -1.36926e-41 0)
(3.96672e-42 -4.61822e-43 0)
(1.32754e-43 -1.02247e-44 0)
(2.94299e-45 -2.92055e-46 0)
(8.40019e-47 -6.09379e-48 0)
(1.75586e-48 -1.51783e-49 0)
(4.37167e-50 -2.97668e-51 0)
(8.58607e-52 -6.5713e-53 0)
(1.89488e-53 -1.20793e-54 0)
(3.48732e-55 -2.39131e-56 0)
(6.9024e-57 -4.11045e-58 0)
(1.18761e-58 -7.36044e-60 0)
(2.12608e-60 -1.16377e-61 0)
(2.508e-62 1.81697e-62 0)
(-3.42381e-63 5.74414e-61 0)
(2.26655e-62 2.72327e-61 0)
(1.37047e-62 -8.58957e-61 0)
(-1.34069e-62 -5.94571e-61 0)
(-1.41299e-62 -1.06929e-62 0)
(-8.44916e-63 2.9796e-61 0)
(9.05363e-63 4.94072e-61 0)
(1.27244e-62 -2.74749e-61 0)
(-8.80774e-63 -2.81314e-61 0)
(-9.18791e-63 2.83492e-61 0)
(6.33457e-64 2.99059e-61 0)
(8.41005e-63 2.14523e-61 0)
(3.96598e-63 -2.03193e-61 0)
(-3.65025e-63 -6.55122e-63 0)
(-4.72884e-64 -1.10241e-63 0)
(1.42222e-63 2.03284e-62 0)
(-2.18885e-61 -1.30226e-61 0)
(-2.25024e-62 1.29435e-59 0)
(2.13615e-61 1.29344e-60 0)
(2.10584e-62 3.52275e-61 0)
(-7.77838e-63 -3.01035e-62 0)
(-8.38562e-65 8.473e-61 0)