/*--------------------------------*- C++ -*----------------------------------*\
| =========                 |                                                 |
| \\      /  F ield         | OpenFOAM: The Open Source CFD Toolbox           |
|  \\    /   O peration     | Version:  2.4.0                                 |
|   \\  /    A nd           | Web:      www.OpenFOAM.org                      |
|    \\/     M anipulation  |                                                 |
\*---------------------------------------------------------------------------*/
FoamFile
{
    version     2.0;
    format      ascii;
    class       surfaceScalarField;
    location    "0.35";
    object      phi;
}
// * * * * * * * * * * * * * * * * * * * * * * * * * * * * * * * * * * * * * //

dimensions      [0 3 -1 0 0 0 0];

internalField   nonuniform List<scalar> 
3781
(
1.16434e-39
1.4602e-41
7.38103e-39
1.16152e-40
1.00714e-38
1.41412e-39
3.90637e-37
1.20763e-39
9.82885e-42
-2.75329e-39
-3.9054e-37
-2.75225e-39
-8.82032e-39
1.22303e-39
1.17346e-39
1.54472e-39
1.63858e-38
1.64757e-39
4.01881e-37
2.65158e-39
3.99269e-37
-1.41307e-39
-3.71924e-37
-3.96092e-39
8.64155e-39
1.20763e-39
3.91896e-37
2.62174e-39
1.0168e-38
-1.22312e-39
7.39129e-39
-1.41526e-39
1.16429e-39
-1.16255e-40
8.67974e-41
-1.43571e-41
9.17492e-42
-1.0466e-42
6.5421e-43
-9.28301e-44
5.48937e-44
-6.23119e-45
3.63229e-45
-4.58941e-46
2.60325e-46
-2.83702e-47
3.1729e-47
-1.72088e-48
2.61263e-46
1.72688e-48
3.64713e-45
2.84683e-47
5.51371e-44
4.60661e-46
6.57581e-43
6.25773e-45
9.22615e-42
9.32604e-44
8.73962e-41
1.05237e-42
1.17281e-39
1.44436e-41
7.4688e-39
1.17208e-40
1.12442e-38
1.42856e-39
3.98105e-37
1.32483e-39
1.12442e-38
-1.32483e-39
7.4688e-39
-1.42856e-39
1.17281e-39
-1.17208e-40
8.73962e-41
-1.44436e-41
9.22615e-42
-1.05237e-42
6.5758e-43
-9.32612e-44
5.51336e-44
-6.26798e-45
3.62582e-45
-5.5867e-46
9.49731e-47
-1.08393e-45
-6.16349e-45
1.6954e-40
-1.46807e-41
1.11456e-39
-1.41667e-40
1.15871e-38
-1.68891e-39
2.04464e-38
-1.4354e-39
1.61194e-42
3.28385e-39
-2.04305e-38
3.28266e-39
-1.1403e-38
-1.45321e-39
1.71353e-40
-1.84737e-39
1.25479e-38
-1.97368e-39
3.22047e-38
-3.15884e-39
2.1745e-38
1.68772e-39
-7.55902e-39
4.71924e-39
1.30023e-39
-1.4354e-39
2.06319e-38
-3.1243e-39
1.1603e-38
1.45331e-39
1.11626e-39
1.69021e-39
1.69855e-40
1.41842e-40
1.42587e-41
1.6629e-41
1.49859e-42
1.19233e-42
1.13359e-43
1.02045e-43
9.54538e-45
6.73161e-45
6.5444e-46
4.84889e-46
4.72152e-47
2.95733e-47
5.89499e-48
1.76894e-48
4.73906e-47
-1.77498e-48
6.57195e-46
-2.96732e-47
9.58945e-45
-4.86658e-46
1.13966e-43
-6.7593e-45
1.50747e-42
-1.025e-43
1.43624e-41
-1.19858e-42
1.71239e-40
-1.67243e-41
1.129e-39
-1.42932e-40
1.17584e-38
-1.70563e-39
2.15753e-38
-1.57832e-39
1.17584e-38
1.57832e-39
1.129e-39
1.70563e-39
1.71239e-40
1.42932e-40
1.43624e-41
1.67243e-41
1.50747e-42
1.19858e-42
1.13961e-43
1.02492e-43
9.53988e-45
6.64446e-45
3.5077e-46
-6.19177e-46
-2.35923e-45
-1.20128e-44
-7.11977e-44
2.67109e-41
-2.45666e-42
1.15793e-40
-2.32942e-41
8.52231e-40
-2.35187e-40
1.45248e-39
-1.93585e-40
3.30023e-43
4.55092e-40
-1.4496e-39
4.54878e-40
-8.2305e-40
-1.96602e-40
2.69388e-41
-2.61313e-40
9.44293e-40
-2.82032e-40
2.33162e-39
-4.34608e-40
1.59742e-39
2.34971e-40
-4.54968e-40
6.48677e-40
1.45276e-40
-1.93585e-40
1.48193e-39
-4.28771e-40
8.55104e-40
1.9662e-40
1.16128e-40
2.35422e-40
2.66335e-41
2.33249e-41
2.54669e-42
2.80232e-42
3.055e-43
2.15516e-43
2.45287e-44
1.87118e-44
2.18685e-45
1.28448e-45
1.5465e-46
9.35782e-47
1.14808e-47
5.85773e-48
1.45776e-48
3.5336e-49
1.15248e-47
-3.546e-49
1.5533e-46
-5.87807e-48
2.19755e-45
-9.39315e-47
2.46718e-44
-1.28996e-45
3.07531e-43
-1.87995e-44
2.56901e-42
-2.16706e-43
2.69141e-41
-2.81973e-42
1.18365e-40
-2.35216e-41
8.79142e-40
-2.38006e-40
1.57081e-39
-2.17105e-40
8.79142e-40
2.17105e-40
1.18365e-40
2.38006e-40
2.69141e-41
2.35216e-41
2.56901e-42
2.81973e-42
3.07525e-43
2.16699e-43
2.46148e-44
1.87047e-44
1.59002e-45
5.00331e-47
-3.6305e-45
-1.19541e-44
-3.01823e-44
-1.334e-43
-8.01323e-43
2.75837e-42
-5.13854e-43
8.94816e-42
-4.10458e-42
4.76829e-41
-3.93639e-41
7.82341e-41
-3.21236e-41
4.03583e-44
7.61653e-41
-7.79019e-41
7.6122e-41
-4.46475e-41
-3.2708e-41
2.78091e-42
-4.40034e-41
5.42215e-41
-4.76049e-41
1.28694e-40
-7.26118e-41
9.0213e-41
3.93147e-41
-1.85317e-41
1.08288e-40
1.20193e-41
-3.21229e-41
8.13027e-41
-7.1481e-41
4.80142e-41
3.2712e-41
8.98817e-42
3.94063e-41
2.74372e-42
4.10357e-42
2.91507e-43
5.41739e-43
3.72153e-44
4.36722e-44
3.14122e-45
3.98729e-45
2.87672e-46
2.81696e-46
2.09385e-47
2.10648e-47
1.57866e-48
1.34051e-48
2.04169e-49
8.19421e-50
1.58488e-48
-8.22345e-50
2.10338e-47
-1.34527e-48
2.89142e-46
-2.11467e-47
3.16057e-45
-2.8295e-46
3.74818e-44
-4.00701e-45
2.94357e-43
-4.39327e-44
2.77775e-42
-5.45442e-43
9.24188e-42
-4.14321e-42
5.04601e-41
-3.99038e-41
8.74725e-41
-3.62658e-41
5.04601e-41
3.62658e-41
9.24188e-42
3.99038e-41
2.77775e-42
4.14321e-42
2.94352e-43
5.45437e-43
3.74168e-44
4.38604e-44
2.5201e-45
3.09786e-45
-6.6036e-45
-1.17314e-44
-4.34183e-44
-1.18128e-43
-3.51197e-43
-1.32923e-42
-8.17162e-42
3.06234e-43
-4.93032e-43
7.09159e-43
-5.74378e-43
1.94661e-42
-4.39131e-42
2.8442e-42
-3.49056e-42
5.19502e-45
8.36469e-42
-2.80388e-42
8.3601e-42
-1.60553e-42
-3.55559e-42
3.1035e-43
-4.87747e-42
2.38773e-42
-5.29806e-42
5.09974e-42
-7.95139e-42
3.89082e-42
4.32299e-42
1.5416e-43
1.18491e-41
1.05207e-42
-3.48329e-42
3.1886e-42
-7.81187e-42
1.98592e-42
3.55611e-42
7.12167e-43
4.33481e-42
3.05607e-43
4.82194e-43
3.48312e-44
6.67051e-44
4.74659e-45
5.62842e-45
4.13967e-46
5.27482e-46
3.90007e-47
3.83375e-47
2.89125e-48
2.91104e-48
2.21215e-49
1.88647e-49
2.89151e-50
1.16368e-50
2.22103e-49
-1.16791e-50
2.90473e-48
-1.89332e-49
3.92065e-47
-2.92267e-48
4.16636e-46
-3.85137e-47
4.78267e-45
-5.30203e-46
3.52057e-44
-5.66382e-45
3.09934e-43
-6.71939e-44
7.42174e-43
-4.87289e-43
2.25586e-42
-4.39581e-42
3.58563e-42
-3.97054e-42
2.25586e-42
3.97054e-42
7.42173e-43
4.39581e-42
3.09929e-43
4.87286e-43
3.5152e-44
6.71503e-44
4.08285e-45
5.00254e-45
-6.54305e-45
-7.86439e-45
-7.61138e-44
-1.12821e-43
-4.8732e-43
-1.12827e-42
-4.02944e-42
-1.3037e-41
-8.26445e-41
3.31804e-45
-4.56128e-42
7.74079e-44
-1.00538e-42
5.38301e-44
-1.14015e-42
3.58114e-44
-4.74329e-43
9.27538e-46
9.5923e-43
-2.85228e-44
9.68316e-43
-1.44392e-44
-4.10779e-43
2.93059e-44
-5.67764e-43
7.57359e-44
-6.17607e-43
1.08575e-43
-9.20945e-43
1.18593e-43
5.01095e-43
1.0068e-43
1.37158e-42
8.65364e-44
-4.0159e-43
6.53158e-44
-9.03407e-43
5.07341e-44
4.10756e-43
5.4307e-44
5.02623e-43
2.88145e-44
5.75672e-44
3.47239e-45
8.37381e-45
4.912e-46
7.26918e-46
4.41373e-47
6.99776e-47
4.23469e-48
5.17845e-48
3.19768e-49
3.98868e-49
2.4731e-50
2.6129e-50
3.2711e-51
1.6236e-51
2.4832e-50
-1.62958e-51
3.21292e-49
-2.62251e-50
4.25767e-48
-4.00491e-49
4.44323e-47
-5.20285e-48
4.95112e-46
-7.03502e-47
3.51224e-45
-7.31694e-46
2.92609e-44
-8.43856e-45
5.72797e-44
-5.82234e-44
7.59877e-44
-5.1026e-43
8.98226e-44
-4.59809e-43
7.59876e-44
4.59809e-43
5.72771e-44
5.10258e-43
2.92209e-44
5.82014e-44
3.00222e-45
8.10854e-45
-6.22048e-45
-4.31944e-45
-6.75368e-44
-6.47776e-44
-7.51075e-43
-8.85672e-43
-4.91111e-42
-9.05817e-42
-4.13585e-41
-1.07421e-40
-7.14932e-40
-2.46335e-43
-4.18259e-41
2.66226e-43
-9.33421e-42
7.8425e-44
-6.62305e-42
2.86931e-44
-7.67267e-43
4.42054e-45
-1.15182e-44
8.85933e-45
8.47154e-44
5.10476e-45
-4.04178e-44
2.84462e-45
-5.53328e-44
2.67903e-46
-6.02577e-44
-6.91064e-45
-8.90272e-44
-1.39333e-46
4.854e-44
1.36665e-44
1.32517e-43
7.74727e-45
-3.85906e-44
-4.65141e-45
-8.72075e-44
-1.51149e-45
3.95425e-44
4.61807e-45
4.8703e-44
2.78864e-45
5.78302e-45
3.46606e-46
8.67512e-46
5.04957e-47
7.74385e-47
4.62274e-48
7.58753e-48
4.50208e-49
5.71783e-49
3.43931e-50
4.45036e-50
2.68191e-51
2.94979e-51
3.57216e-52
1.84391e-52
2.69299e-51
-1.85078e-52
3.45594e-50
-2.96079e-51
4.52698e-49
-4.46879e-50
4.65444e-48
-5.74536e-49
5.09111e-47
-7.62906e-48
3.50773e-46
-7.79653e-47
2.83444e-45
-8.74522e-46
4.91327e-45
-5.85278e-45
9.21263e-46
-4.94919e-44
-2.92341e-45
-4.44428e-44
9.19663e-46
4.44423e-44
4.88914e-45
4.94826e-44
2.4686e-45
5.69283e-45
-4.34916e-45
-1.55037e-45
-6.29124e-44
-3.76952e-44
-6.43968e-43
-4.92678e-43
-7.34891e-42
-6.92219e-42
-4.94067e-41
-7.29586e-41
-4.3118e-40
-9.08139e-40
-6.4392e-39
-1.89408e-42
-3.93611e-40
3.10373e-42
-8.09188e-41
8.51819e-43
-5.60684e-41
3.6877e-43
-6.06905e-42
4.32463e-44
-8.34276e-43
7.14513e-45
-6.22645e-44
1.19494e-45
-1.05887e-44
3.00066e-46
-5.88355e-45
-2.05442e-46
-5.92031e-45
-1.16622e-45
-8.65303e-45
-3.88359e-46
4.71985e-45
1.3128e-45
1.28714e-44
6.53304e-46
-3.73712e-45
-7.58264e-46
-8.4651e-45
-3.4113e-46
3.83424e-45
3.79574e-46
4.73692e-45
2.43224e-46
5.73698e-46
3.10701e-47
8.83622e-47
4.61212e-48
8.02885e-48
4.29842e-49
7.98314e-49
4.23127e-50
6.0868e-50
3.27037e-51
4.77592e-51
2.56672e-52
3.18842e-52
3.44434e-53
2.00111e-53
2.57744e-52
-2.00861e-53
3.28641e-51
-3.20041e-52
4.25509e-50
-4.79593e-51
4.32854e-49
-6.11654e-50
4.65113e-48
-8.02769e-49
3.14571e-47
-8.0849e-48
2.47399e-46
-8.90991e-47
4.05945e-46
-5.80919e-46
-1.2988e-46
-4.81714e-45
-6.31872e-46
-4.31812e-45
-1.41701e-46
4.31526e-45
2.26601e-46
4.77062e-45
-2.49534e-45
-2.19692e-46
-3.56023e-44
-1.21629e-44
-4.84625e-43
-1.93374e-43
-5.06388e-42
-2.57214e-42
-5.91961e-41
-3.71092e-41
-4.14659e-40
-4.11082e-40
-3.71418e-39
-5.4111e-39
-4.33994e-38
-8.37453e-43
-2.95863e-39
3.72585e-41
-7.02576e-40
9.41076e-42
-5.2463e-40
3.84199e-42
-5.38875e-41
4.32792e-43
-7.20916e-42
5.9459e-44
-5.85632e-43
5.24767e-45
-5.45166e-44
5.12756e-46
-4.33028e-45
1.06507e-47
-8.07612e-46
-1.16498e-46
-7.74522e-46
-4.57847e-47
4.11815e-46
1.17084e-46
1.1243e-45
5.55549e-47
-3.25268e-46
-7.70079e-47
-7.39029e-46
-3.63914e-47
3.34128e-46
3.19019e-47
4.14595e-46
2.09788e-47
5.13673e-47
2.72431e-48
8.05131e-48
4.10182e-49
7.44468e-49
3.86796e-50
7.47973e-50
3.83834e-51
5.76971e-51
2.98933e-52
4.55515e-52
2.35652e-53
3.06379e-53
3.17656e-54
1.92921e-54
2.36642e-53
-1.93649e-54
3.00411e-52
-3.07541e-53
3.8602e-51
-4.57444e-52
3.89548e-50
-5.79829e-51
4.13716e-49
-7.52221e-50
2.75907e-48
-7.49782e-49
2.13488e-47
-8.12036e-48
3.41925e-47
-5.20379e-47
-1.85098e-47
-4.21929e-46
-7.19654e-47
-3.78023e-46
-1.04707e-46
3.63532e-46
-1.28722e-45
1.83853e-46
-2.05563e-44
-4.12155e-45
-2.71663e-43
-6.47698e-44
-3.79895e-42
-1.05179e-42
-4.07662e-41
-1.43403e-41
-4.98045e-40
-2.18101e-40
-3.65484e-39
-2.57461e-39
-3.4915e-38
-3.77809e-38
-3.51497e-37
3.21523e-40
-2.51714e-38
5.24086e-40
-4.62944e-39
9.73074e-41
-3.19602e-39
3.25843e-41
-3.15977e-40
3.50136e-42
-3.92086e-41
4.59798e-43
-3.07793e-42
3.92293e-44
-2.73832e-43
3.64746e-45
-1.91376e-44
2.65154e-46
-1.46178e-45
1.02473e-47
-1.63346e-46
-2.67516e-48
3.47584e-47
9.50648e-48
1.09862e-46
4.40932e-48
-3.18258e-47
-6.43795e-48
-7.24012e-47
-3.08954e-48
3.2701e-47
2.51384e-48
4.06783e-47
1.67365e-48
5.1101e-48
2.20956e-49
8.11648e-49
3.35982e-50
7.58976e-50
3.20525e-51
7.68299e-51
3.19996e-52
5.97046e-52
2.51124e-53
4.73256e-53
1.98663e-54
3.19715e-54
2.69055e-55
2.01653e-55
1.99499e-54
-2.02416e-55
2.52368e-53
-3.20934e-54
3.21818e-52
-4.75275e-53
3.22792e-51
-6.00035e-52
3.38832e-50
-7.72725e-51
2.23641e-49
-7.64504e-50
1.70004e-48
-8.18804e-49
2.62607e-48
-5.17981e-48
-3.03377e-48
-4.14453e-47
-2.96062e-47
-3.7601e-47
-4.14063e-46
2.52272e-47
-6.36267e-45
-1.63122e-46
-1.0041e-43
-3.62812e-45
-1.35163e-42
-5.71792e-44
-1.93317e-41
-9.63421e-43
-2.15528e-40
-1.42625e-41
-2.73356e-39
-2.57528e-40
-2.16182e-38
-4.37507e-39
-2.14973e-37
-9.05006e-38
-1.43358e-36
1.51015e-38
-2.12116e-37
1.26053e-38
-5.83191e-38
1.94972e-39
-4.73645e-38
5.49728e-40
-4.11665e-39
5.46007e-41
-4.92811e-40
6.87148e-42
-3.63555e-41
5.62205e-43
-3.16444e-42
5.11488e-44
-2.12867e-43
3.6567e-45
-1.55107e-44
2.72374e-46
-9.62343e-46
1.71579e-47
-5.92598e-47
1.92767e-48
1.92577e-48
4.34857e-49
-1.76101e-48
-5.45791e-49
-3.56939e-48
-2.65107e-49
1.60534e-48
2.09901e-49
2.00289e-48
1.40504e-49
2.556e-49
1.87102e-50
4.1364e-50
2.86116e-51
3.92376e-51
2.74551e-52
4.02107e-52
2.74801e-53
3.15866e-53
2.16336e-54
2.52405e-54
1.7122e-55
1.71823e-55
2.31998e-56
1.0891e-56
1.71618e-55
-1.09308e-56
2.16646e-54
-1.72443e-55
2.74608e-53
-2.53394e-54
2.72603e-52
-3.17232e-53
2.8009e-51
-4.03915e-52
1.71927e-50
-3.94086e-51
1.07207e-49
-4.14769e-50
-4.58449e-49
-2.53838e-49
-1.31165e-47
-1.93389e-48
-2.26669e-46
1.98719e-49
-3.97979e-45
3.96548e-47
-6.24417e-44
6.56723e-46
-1.01487e-42
1.12825e-44
-1.39776e-41
1.70547e-43
-2.09153e-40
2.44898e-42
-2.41422e-39
1.96283e-41
-3.30041e-38
-2.48578e-40
-2.76582e-37
-2.32545e-38
-3.19629e-36
-8.02261e-37
-1.99286e-35
4.86545e-37
-2.86368e-37
3.24903e-37
-2.24189e-37
3.28846e-38
-5.12699e-38
5.48027e-39
-4.02404e-39
4.77568e-40
-4.5826e-40
5.23999e-41
-3.33137e-41
4.05849e-42
-2.88734e-42
3.49701e-43
-1.93572e-43
2.43403e-44
-1.40923e-44
1.7726e-45
-8.69844e-46
1.11984e-46
-5.54342e-47
7.20528e-48
-2.88152e-48
4.31622e-49
-2.62873e-49
-1.05874e-51
-1.94935e-49
-1.08094e-50
8.30456e-50
9.5443e-51
1.04396e-49
6.37182e-51
1.34387e-50
8.58193e-52
2.17759e-51
1.32517e-52
2.07581e-52
1.28341e-53
2.12552e-53
1.29295e-54
1.67277e-54
1.02454e-55
1.3338e-55
8.14155e-57
9.07706e-57
1.1123e-57
5.73698e-58
8.27117e-57
-5.74383e-58
1.05199e-55
-9.07604e-57
1.35144e-54
-1.33084e-55
1.40477e-53
-1.6608e-54
1.57719e-52
-2.09104e-53
1.36162e-51
-1.98786e-52
1.6351e-50
-1.97435e-51
1.97074e-49
-9.04907e-51
3.47422e-48
-1.4061e-50
6.03137e-47
1.65851e-48
1.03778e-45
3.30113e-47
1.62017e-44
5.70727e-46
2.55533e-43
9.85853e-45
3.50651e-42
1.49833e-43
5.03201e-41
2.18174e-42
5.8003e-40
1.8917e-41
7.45291e-39
-1.50211e-40
6.28174e-38
-1.81391e-38
6.53083e-37
-6.43063e-37
-1.62993e-35
2.08143e-35
-1.06902e-35
5.88917e-37
-3.00695e-37
4.45138e-37
2.90362e-38
7.279e-38
3.31096e-39
5.70727e-39
4.43371e-40
6.16664e-40
3.32538e-41
4.52997e-41
2.91105e-42
3.85462e-42
1.95474e-43
2.59949e-43
1.42257e-44
1.87391e-44
8.77352e-46
1.15936e-45
5.59935e-47
7.35889e-47
3.20065e-48
4.19612e-48
1.79242e-49
2.38811e-49
1.0932e-51
1.21077e-50
4.36655e-51
1.10919e-51
4.85986e-51
3.32662e-52
6.30611e-52
4.22269e-53
1.028e-52
6.35452e-54
9.88065e-54
6.13576e-55
1.01621e-54
6.15765e-56
8.04267e-56
4.87899e-57
6.42883e-57
3.88168e-58
4.38981e-58
8.84652e-59
2.77009e-59
1.26048e-57
-2.95719e-59
2.53956e-56
-4.83033e-58
5.31814e-55
-7.48807e-57
1.0978e-53
-1.05069e-55
2.29538e-52
-1.57866e-54
4.63161e-51
-2.2216e-53
9.27565e-50
-3.68314e-52
1.76033e-48
-6.07362e-51
3.29728e-47
-1.14671e-49
5.74835e-46
-2.08814e-48
9.9619e-45
-3.91574e-47
1.56667e-43
-6.78339e-46
2.49594e-42
-1.17184e-44
3.45918e-41
-1.76825e-43
5.03616e-40
-2.52052e-42
5.89186e-39
-1.85647e-41
7.7489e-38
3.44514e-40
6.71933e-37
2.76174e-38
7.33513e-36
9.42753e-37
2.34449e-35
5.33801e-37
-2.10414e-37
2.72607e-37
-1.40182e-37
2.87115e-38
3.83904e-38
4.92838e-39
3.80229e-39
4.38361e-40
4.82891e-40
4.88536e-41
3.60474e-41
3.82423e-42
3.15113e-42
3.32287e-43
2.12185e-43
2.32732e-44
1.54639e-44
1.70365e-45
9.56061e-46
1.08081e-46
6.10902e-47
6.94262e-48
3.48504e-48
4.02997e-49
2.00066e-49
2.32242e-50
1.0185e-50
1.22152e-51
7.38028e-52
8.50555e-53
2.55529e-52
1.62901e-53
3.12154e-53
1.93796e-54
4.9378e-54
2.83173e-55
4.73168e-55
2.72759e-56
4.84328e-56
2.73093e-57
3.83285e-57
2.16765e-58
3.05469e-58
1.71967e-59
2.08369e-59
2.89342e-60
1.25353e-60
3.0004e-59
-2.87809e-60
5.05043e-58
-5.97579e-59
8.88246e-57
-1.25158e-57
1.56455e-55
-2.60366e-56
2.81757e-54
-5.57655e-55
5.1328e-53
-1.16857e-53
8.90006e-52
-2.46596e-52
1.57444e-50
-4.99257e-51
2.41919e-49
-1.00304e-49
3.94393e-48
-1.90012e-48
4.81615e-47
-3.56549e-47
7.02594e-46
-6.176e-46
4.50432e-45
-1.06422e-44
5.78273e-44
-1.60173e-43
-1.03264e-42
-2.25002e-42
-1.05376e-41
-1.51122e-41
-5.65054e-40
3.8659e-40
-4.00868e-39
2.7562e-38
-1.11794e-37
9.24491e-37
2.26533e-35
4.12845e-38
-1.70178e-37
-1.62656e-38
-1.1814e-38
-3.91708e-40
2.30823e-39
2.38367e-40
2.85303e-40
3.2288e-41
3.87073e-41
4.84809e-42
3.11849e-42
4.27898e-43
2.8102e-43
4.11548e-44
1.97472e-44
3.04294e-45
1.46749e-45
2.33533e-46
9.32495e-47
1.52465e-47
6.04194e-48
1.00406e-48
3.51244e-49
5.92209e-50
2.03897e-50
3.46509e-51
1.07611e-51
1.86216e-52
6.58055e-53
1.07923e-53
1.27915e-53
1.06371e-54
1.45008e-54
1.0203e-55
2.20741e-55
1.31677e-56
2.10757e-56
1.22945e-57
2.14951e-57
1.20782e-58
1.70369e-58
9.50534e-60
1.35654e-59
1.47754e-61
9.28342e-61
-1.49743e-59
1.13081e-61
-3.68123e-58
1.35528e-60
-8.68817e-57
3.43992e-59
-2.00689e-55
8.49965e-58
-4.43968e-54
2.01581e-56
-9.63929e-53
4.66675e-55
-1.98726e-51
1.03247e-53
-4.04021e-50
2.24095e-52
-7.7009e-49
4.60935e-51
-1.4596e-47
9.36006e-50
-2.54386e-46
1.77714e-48
-4.47375e-45
3.36425e-47
-7.01614e-44
5.83161e-46
-1.13973e-42
1.02571e-44
-1.56884e-41
1.60155e-43
-2.34607e-40
2.63493e-42
-2.70604e-39
3.73691e-41
-3.69685e-38
6.17399e-40
-3.0951e-37
9.01743e-39
-3.57495e-36
1.65637e-37
2.31591e-36
2.11578e-39
-2.60334e-38
-1.59722e-39
-1.78681e-39
-9.99018e-41
1.10497e-40
6.49252e-42
2.12237e-41
1.55266e-42
3.76005e-42
2.8416e-43
3.34602e-43
2.73773e-44
3.31145e-44
2.76838e-45
2.44568e-45
2.13197e-46
1.90031e-46
1.67621e-47
1.24064e-47
1.12114e-48
8.22964e-49
7.49272e-50
4.85793e-50
4.49047e-51
2.85752e-51
2.65469e-52
1.53791e-52
1.44619e-53
8.58374e-54
8.10707e-55
8.4217e-55
6.22307e-56
7.73096e-56
5.11471e-57
1.02689e-56
5.84548e-58
9.49773e-58
5.26765e-59
9.49198e-59
5.06445e-60
7.47786e-60
3.99572e-61
5.918e-61
9.9314e-62
4.46004e-62
1.70822e-60
1.16395e-61
4.15706e-59
2.9373e-60
9.76933e-58
7.33983e-59
2.24297e-56
1.79382e-57
4.93841e-55
4.22243e-56
1.06379e-53
9.73477e-55
2.17963e-52
2.14804e-53
4.38317e-51
4.65568e-52
8.28387e-50
9.56979e-51
1.54595e-48
1.94229e-49
2.66219e-47
3.68799e-48
4.57784e-46
6.97928e-47
7.05487e-45
1.21023e-45
1.1081e-43
2.12755e-44
1.48488e-42
3.32137e-43
2.10588e-41
5.44737e-42
2.32346e-40
7.65879e-41
2.90351e-39
1.23864e-39
2.24802e-38
1.72363e-38
2.19353e-37
3.02628e-37
3.97637e-36
1.97315e-40
-1.68108e-39
-2.00818e-40
-1.31655e-40
-1.50193e-41
1.82891e-42
-6.08767e-43
1.00316e-42
4.06864e-44
2.20836e-43
1.62616e-44
2.1462e-44
1.84489e-45
2.24086e-45
2.07047e-46
1.72686e-46
1.683e-47
1.3769e-47
1.37987e-48
9.21837e-49
9.47762e-50
6.20985e-50
6.47001e-51
3.72622e-51
3.93447e-52
2.21452e-52
2.35328e-53
1.20815e-53
1.29425e-54
6.64525e-55
7.11775e-56
5.03373e-56
4.4638e-57
3.96124e-57
3.03435e-58
4.58706e-58
2.81708e-59
4.08369e-59
2.34025e-60
3.98299e-60
2.15378e-61
3.11577e-61
6.14308e-62
2.45302e-62
1.16375e-60
2.69349e-63
2.90602e-59
2.73139e-62
7.10149e-58
7.03167e-61
1.67279e-56
1.75831e-59
3.85615e-55
4.30201e-58
8.51786e-54
1.01361e-56
1.84552e-52
2.34039e-55
3.79914e-51
5.17046e-54
7.70446e-50
1.12281e-52
1.46602e-48
2.31136e-51
2.76961e-47
4.70325e-50
4.81697e-46
8.9512e-49
8.43431e-45
1.70332e-47
1.31925e-43
2.98833e-46
2.13005e-42
5.4564e-45
2.92173e-41
9.63411e-44
4.33068e-40
2.14677e-42
4.97042e-39
5.7663e-41
6.6976e-38
1.94239e-39
5.5649e-37
6.30436e-38
6.27183e-36
1.80781e-36
4.04033e-35
1.1846e-41
-1.6785e-40
-1.26903e-41
-1.32417e-41
-1.05818e-42
-6.05024e-43
-7.08872e-44
1.96142e-44
-5.72722e-46
1.24123e-44
6.99308e-46
1.41557e-45
9.44133e-47
1.64317e-46
1.15141e-47
1.33512e-47
9.81784e-49
1.10995e-48
8.29618e-50
7.62827e-50
5.83937e-51
5.2478e-51
4.05079e-52
3.19485e-52
2.50026e-53
1.92048e-53
1.51034e-54
1.05767e-54
8.39175e-56
5.77819e-56
4.60518e-57
3.60415e-57
2.67591e-58
2.38124e-58
1.64687e-59
2.21895e-59
1.31186e-60
1.81943e-60
1.00878e-61
1.68027e-61
1.17233e-62
1.28713e-62
8.06496e-62
7.7742e-64
2.06719e-60
-5.92003e-63
5.17034e-59
-1.58126e-61
1.26441e-57
-4.08245e-60
2.98023e-56
-1.01979e-58
6.87597e-55
-2.49158e-57
1.51989e-53
-5.86368e-56
3.29649e-52
-1.3516e-54
6.79141e-51
-2.98198e-53
1.37903e-49
-6.46185e-52
2.62643e-48
-1.32804e-50
4.96995e-47
-2.6945e-49
8.65307e-46
-5.11385e-48
1.51838e-44
-9.66284e-47
2.37802e-43
-1.66712e-45
3.85093e-42
-2.87836e-44
5.29062e-41
-4.18372e-43
7.87637e-40
-5.27982e-42
9.05887e-39
3.37498e-42
1.2295e-37
2.9175e-39
1.02494e-36
1.43346e-37
1.17228e-35
4.53806e-36
1.08249e-34
9.50918e-43
-1.04129e-41
-1.01691e-42
-8.8093e-43
-8.83324e-44
-6.31739e-44
-8.4947e-45
-1.21407e-45
-3.59898e-46
5.15963e-46
1.51798e-47
7.1452e-47
4.18034e-48
9.10221e-48
6.23919e-49
7.77901e-49
5.76432e-50
6.67828e-50
5.13106e-51
4.70791e-51
3.72644e-52
3.29315e-52
2.64488e-53
2.03572e-53
1.65842e-54
1.23606e-54
1.0136e-55
6.87791e-56
5.68113e-57
3.76467e-57
3.1191e-58
2.17889e-58
1.71964e-59
1.31314e-59
9.75739e-61
1.04223e-60
6.62575e-62
7.8864e-62
4.57827e-63
6.85525e-63
4.55182e-64
5.04616e-64
2.50108e-63
-1.89507e-64
6.39743e-62
-6.21528e-63
1.60044e-60
-1.64221e-61
3.91502e-59
-4.23979e-60
9.23004e-58
-1.05911e-58
2.13028e-56
-2.58768e-57
4.71016e-55
-6.08993e-56
1.02201e-53
-1.40377e-54
2.10619e-52
-3.09712e-53
4.27888e-51
-6.71146e-52
8.15229e-50
-1.37935e-50
1.54363e-48
-2.79865e-49
2.68871e-47
-5.31158e-48
4.72192e-46
-1.00368e-46
7.39892e-45
-1.73179e-45
1.19955e-43
-2.99099e-44
1.649e-42
-4.35327e-43
2.45908e-41
-5.52604e-42
2.83044e-40
1.48393e-42
3.85208e-39
2.945e-39
3.21496e-38
1.45825e-37
3.69753e-37
4.62333e-36
1.10387e-34
5.50811e-44
-8.10362e-43
-5.85947e-44
-6.93032e-44
-5.38735e-45
-7.01085e-45
-5.92158e-46
-3.21931e-46
-3.19513e-47
9.50007e-48
-4.27992e-49
3.06205e-48
1.4054e-49
4.86452e-49
2.79095e-50
4.51055e-50
2.81552e-51
4.08444e-51
2.63174e-52
2.97143e-52
1.97177e-53
2.127e-53
1.42834e-54
1.33585e-54
9.10254e-56
8.20666e-56
5.62451e-57
4.60695e-57
3.18321e-58
2.52967e-58
1.75453e-59
1.39295e-59
9.47429e-61
7.81002e-61
5.16516e-62
5.28243e-62
3.17338e-63
3.60712e-63
9.09715e-65
2.86648e-64
-3.00219e-63
2.15884e-65
-7.97658e-62
2.74904e-65
-2.06123e-60
7.07621e-64
-5.15563e-59
1.87153e-62
-1.26083e-57
4.84177e-61
-2.97184e-56
1.21164e-59
-6.85675e-55
2.96775e-58
-1.51566e-53
6.99883e-57
-3.28739e-52
1.61821e-55
-6.77277e-51
3.57889e-54
-1.37527e-49
7.78514e-53
-2.61932e-48
1.60469e-51
-4.95664e-47
3.27255e-50
-8.63004e-46
6.23971e-49
-1.51439e-44
1.19211e-47
-2.37181e-43
2.10562e-46
-3.84107e-42
3.92299e-45
-5.27716e-41
7.31665e-44
-7.85689e-40
1.80475e-42
-9.03662e-39
5.46238e-41
-1.22663e-37
1.95844e-39
-1.02258e-36
6.55805e-38
-1.16993e-35
1.89779e-36
4.26703e-35
3.69064e-45
-4.74093e-44
-3.87568e-45
-4.23834e-45
-3.65153e-46
-4.94319e-46
-4.56218e-47
-2.7883e-47
-2.86957e-48
-5.43131e-49
-1.31601e-49
9.45458e-50
3.75106e-52
2.15216e-50
1.02995e-51
2.1993e-51
1.27015e-52
2.10176e-52
1.30283e-53
1.5807e-53
1.02325e-54
1.15636e-54
7.64469e-56
7.38721e-56
4.97067e-57
4.59037e-57
3.11497e-58
2.60293e-58
1.78082e-59
1.43676e-59
9.86718e-61
7.75251e-61
5.25902e-62
4.165e-62
2.78727e-63
2.56291e-63
1.55426e-64
4.29877e-64
-5.7662e-65
4.71627e-65
-1.81034e-63
1.15108e-65
-4.78587e-62
1.32653e-64
-1.23598e-60
3.59194e-63
-3.08989e-59
9.48674e-62
-7.55129e-58
2.44937e-60
-1.77883e-56
6.11883e-59
-4.1008e-55
1.49512e-57
-9.05863e-54
3.51891e-56
-1.96278e-52
8.11238e-55
-4.04063e-51
1.79002e-53
-8.19447e-50
3.87971e-52
-1.55928e-48
7.97495e-51
-2.94587e-47
1.61864e-49
-5.12344e-46
3.07357e-48
-8.97101e-45
5.81679e-47
-1.40312e-43
1.00875e-45
-2.26543e-42
1.77376e-44
-3.10703e-41
2.77127e-43
-4.60518e-40
4.55567e-42
-5.28414e-39
6.45426e-41
-7.12034e-38
1.061e-39
-5.91379e-37
1.53394e-38
-6.6679e-36
2.78873e-37
-6.14363e-36
3.84752e-36
4.48406e-35
1.6454e-46
-1.22576e-44
-1.71872e-46
-1.10776e-45
-1.67562e-47
-1.46228e-46
-2.20582e-48
-9.30666e-48
-1.48736e-49
-4.37254e-49
-8.44281e-51
-8.43123e-52
-1.98419e-52
3.2331e-51
2.74672e-53
4.01138e-52
4.40042e-54
4.1946e-53
4.93295e-55
3.29769e-54
4.03994e-56
2.48392e-55
3.09521e-57
1.61694e-56
2.04774e-58
1.01808e-57
1.2981e-59
5.82745e-59
7.48988e-61
3.22206e-60
4.17372e-62
1.66087e-61
2.24691e-63
3.63919e-64
1.39625e-64
4.06676e-64
-2.71091e-66
8.0047e-63
-1.896e-65
1.04468e-63
-2.09736e-64
1.79421e-64
-5.49107e-63
7.44441e-65
-1.41413e-61
1.55698e-63
-3.52675e-60
4.10508e-62
-8.58817e-59
1.05902e-60
-2.01698e-57
2.64368e-59
-4.62824e-56
6.45337e-58
-1.01849e-54
1.51761e-56
-2.19336e-53
3.49436e-55
-4.49354e-52
7.70291e-54
-9.03878e-51
1.66698e-52
-1.70925e-49
3.42261e-51
-3.19333e-48
6.93304e-50
-5.50831e-47
1.31463e-48
-9.49417e-46
2.48138e-47
-1.46833e-44
4.29472e-46
-2.31632e-43
7.51839e-45
-3.12569e-42
1.16802e-43
-4.46695e-41
1.8905e-42
-4.99723e-40
2.57578e-41
-6.32146e-39
3.87691e-40
-5.02316e-38
4.50774e-39
-4.94884e-37
6.41353e-38
-4.50578e-37
5.67912e-37
6.42272e-36
-5.86907e-46
-1.42203e-43
6.11825e-46
-1.27044e-44
5.97757e-47
-1.47949e-45
7.92665e-48
-8.32241e-47
5.38129e-49
-1.56213e-48
3.11263e-50
2.90006e-49
7.94042e-52
6.52434e-50
-9.05823e-53
6.65191e-51
-1.51859e-53
6.35024e-52
-1.72453e-54
4.7733e-53
-1.4199e-55
3.49094e-54
-1.09134e-56
2.2297e-55
-7.23399e-58
1.38542e-56
-4.59149e-59
7.85471e-58
-2.65135e-60
4.29989e-59
-1.47335e-61
2.16134e-60
-6.91222e-63
-1.26713e-61
3.11953e-64
4.7117e-63
-2.90346e-64
2.32436e-61
-3.58631e-64
3.02054e-62
-7.75976e-65
5.15779e-63
-7.73732e-64
5.07605e-64
-1.98109e-62
2.34892e-64
-4.95985e-61
4.8397e-63
-1.21199e-59
1.24499e-61
-2.85518e-58
3.10271e-60
-6.56809e-57
7.55237e-59
-1.44823e-55
1.77192e-57
-3.12277e-54
4.06378e-56
-6.40055e-53
8.92977e-55
-1.28692e-51
1.9219e-53
-2.42935e-50
3.92916e-52
-4.52568e-49
7.8986e-51
-7.76637e-48
1.48904e-49
-1.32986e-46
2.78046e-48
-2.03433e-45
4.77376e-47
-3.16902e-44
8.22722e-46
-4.18388e-43
1.26316e-44
-5.8428e-42
1.99528e-43
-6.25134e-41
2.66318e-42
-7.60563e-40
3.83303e-41
-5.52789e-39
4.2369e-40
-5.2665e-38
5.49667e-39
-4.78478e-38
4.30862e-38
4.34739e-37
-1.10505e-44
-2.43536e-42
1.16032e-44
-2.08491e-43
1.09261e-45
-2.09659e-44
1.35642e-46
-9.55697e-46
8.47258e-48
3.10505e-47
3.74049e-49
9.43833e-48
-3.02199e-51
1.48851e-48
-3.28227e-51
1.37661e-49
-3.95963e-52
1.24518e-50
-4.02758e-53
9.05176e-52
-3.15041e-54
6.47701e-53
-2.34788e-55
4.06657e-54
-1.52414e-56
2.49788e-55
-9.54073e-58
1.40181e-56
-5.4497e-59
7.5966e-58
-3.00557e-60
3.74132e-59
-1.33333e-61
-4.71475e-60
1.28342e-62
7.65526e-62
-8.42887e-63
6.51042e-60
-1.05751e-62
8.42912e-61
-1.43968e-63
1.44641e-61
-2.94589e-64
1.40368e-62
-1.68344e-63
1.47334e-63
-4.15675e-62
7.59538e-64
-1.01433e-60
1.6671e-62
-2.387e-59
4.1667e-61
-5.47858e-58
1.01721e-59
-1.20581e-56
2.39288e-58
-2.59093e-55
5.49906e-57
-5.2958e-54
1.21032e-55
-1.05929e-52
2.60705e-54
-1.9916e-51
5.33095e-53
-3.68232e-50
1.07078e-51
-6.28248e-49
2.0149e-50
-1.06398e-47
3.75046e-49
-1.61377e-46
6.40684e-48
-2.47275e-45
1.09671e-46
-3.22184e-44
1.66613e-45
-4.38494e-43
2.59802e-44
-4.58842e-42
3.39186e-43
-5.35423e-41
4.75865e-42
-3.74014e-40
4.99362e-41
-3.34515e-39
6.16611e-40
-3.01797e-39
4.28342e-39
4.231e-38
-1.67006e-43
-3.19069e-41
1.77529e-43
-2.70066e-42
1.63203e-44
-1.98597e-43
1.79588e-45
-4.28425e-45
9.69493e-47
1.49837e-45
1.3055e-48
2.11854e-46
-4.25968e-49
2.72212e-47
-8.46868e-50
2.33489e-48
-8.54658e-51
2.00969e-49
-7.99163e-52
1.41901e-50
-5.98894e-53
9.93876e-52
-4.33939e-54
6.14952e-53
-2.76589e-55
3.73693e-54
-1.70942e-56
2.08002e-55
-9.67553e-58
1.11189e-56
-5.29962e-59
5.26898e-58
-2.09013e-60
-1.55025e-58
4.62419e-61
9.22294e-61
-2.40946e-61
1.79304e-58
-3.07013e-61
2.30813e-59
-4.15833e-62
3.97839e-60
-6.6995e-63
3.85248e-61
-8.02269e-64
3.99241e-62
-3.77536e-63
3.22276e-63
-9.08386e-62
1.83213e-63
-2.14424e-60
3.97075e-62
-4.93445e-59
9.70768e-61
-1.08843e-57
2.29192e-59
-2.34256e-56
5.27244e-58
-4.79273e-55
1.16493e-56
-9.5898e-54
2.50875e-55
-1.80161e-52
5.15248e-54
-3.32629e-51
1.03274e-52
-5.65614e-50
1.95386e-51
-9.54211e-49
3.6181e-50
-1.4366e-47
6.22655e-49
-2.1851e-46
1.05491e-47
-2.80611e-45
1.6208e-46
-3.77177e-44
2.47833e-45
-3.83726e-43
3.29834e-44
-4.39533e-42
4.45586e-43
-2.89972e-41
4.85489e-42
-2.56435e-40
5.55427e-41
-1.86056e-40
4.29563e-40
3.62105e-39
-2.85775e-42
-5.06498e-40
3.0551e-42
-4.00742e-41
2.65503e-43
-1.83503e-42
2.5374e-44
5.81433e-44
1.06331e-45
3.74989e-44
-4.89957e-47
4.27917e-45
-1.28825e-47
4.97404e-46
-1.90962e-48
4.04294e-47
-1.75968e-49
3.36322e-48
-1.56456e-50
2.31203e-49
-1.13537e-51
1.59114e-50
-8.05523e-53
9.68881e-52
-5.04923e-54
5.82577e-53
-3.08563e-55
3.20725e-54
-1.72908e-56
1.68082e-55
-9.39785e-58
7.46158e-57
-3.02819e-59
-4.41153e-57
1.4353e-59
9.08997e-60
-6.67967e-60
4.72958e-57
-8.58496e-60
6.06258e-58
-1.15982e-60
1.04912e-58
-1.87484e-61
1.01462e-59
-1.83216e-62
1.0553e-60
-1.62028e-63
8.37119e-62
5.90393e-63
8.87586e-63
1.53655e-61
5.7794e-62
3.71879e-60
1.43228e-60
8.88777e-59
3.49039e-59
2.00441e-57
8.2012e-58
4.49096e-56
1.88099e-56
9.36386e-55
4.1355e-55
1.95768e-53
8.88788e-54
3.73293e-52
1.81572e-52
7.24051e-51
3.6375e-51
1.24311e-49
6.84004e-50
2.22063e-48
1.26922e-48
3.35253e-47
2.16752e-47
5.46133e-46
3.69632e-46
6.97061e-45
5.61709e-45
1.02023e-43
8.71805e-44
1.02047e-42
1.13954e-42
1.30442e-41
1.58955e-41
8.3907e-41
1.67221e-40
8.59173e-40
2.05052e-39
1.42995e-38
-3.64149e-41
-5.26062e-39
3.89526e-41
-4.12981e-40
3.25629e-42
2.70615e-42
2.24743e-43
2.81371e-42
2.58702e-45
6.45914e-43
-2.03033e-45
6.34189e-44
-2.79708e-46
6.66568e-45
-3.44009e-47
5.15559e-46
-2.94457e-48
4.12258e-47
-2.49484e-49
2.76552e-48
-1.75902e-50
1.86603e-49
-1.2219e-51
1.1211e-50
-7.54944e-53
6.67028e-52
-4.56472e-54
3.63718e-53
-2.53754e-55
1.81833e-54
-1.3682e-56
6.46563e-56
-2.08509e-58
-1.2122e-55
4.26169e-58
-6.31848e-59
-1.82638e-58
1.23071e-55
-2.3617e-58
1.56656e-56
-3.17608e-59
2.72013e-57
-5.1527e-60
2.62242e-58
-5.02755e-61
2.73573e-59
-4.57065e-62
2.1668e-60
1.30016e-61
1.87901e-61
3.27047e-60
3.98701e-61
7.69495e-59
9.63954e-60
1.76582e-57
2.34515e-58
3.88564e-56
5.49987e-57
8.34852e-55
1.26094e-55
1.70619e-53
2.76998e-54
3.41304e-52
5.96052e-53
6.41678e-51
1.21842e-51
1.18673e-49
2.44935e-50
2.02494e-48
4.61804e-49
3.43125e-47
8.62576e-48
5.20605e-46
1.48168e-46
7.98471e-45
2.55545e-45
1.04108e-43
3.92791e-44
1.41911e-42
6.21377e-43
1.48688e-41
8.31379e-42
1.73914e-40
1.20013e-40
1.21725e-39
1.3339e-39
1.09156e-38
1.73991e-38
1.379e-37
-5.95732e-40
-7.87526e-38
6.0571e-40
-5.44628e-39
4.54465e-41
3.26779e-40
1.84092e-42
6.34952e-41
-1.22319e-43
1.13209e-41
-4.92119e-44
1.00881e-42
-5.58356e-45
1.00011e-43
-6.27238e-46