/*--------------------------------*- C++ -*----------------------------------*\
| =========                 |                                                 |
| \\      /  F ield         | OpenFOAM: The Open Source CFD Toolbox           |
|  \\    /   O peration     | Version:  2.4.0                                 |
|   \\  /    A nd           | Web:      www.OpenFOAM.org                      |
|    \\/     M anipulation  |                                                 |
\*---------------------------------------------------------------------------*/
FoamFile
{
    version     2.0;
    format      ascii;
    class       volVectorField;
    location    "0.35";
    object      U;
}
// * * * * * * * * * * * * * * * * * * * * * * * * * * * * * * * * * * * * * //

dimensions      [0 1 -1 0 0 0 0];

internalField   nonuniform List<vector> 
1935
(
(2.26332e-36 5.88073e-37 0)
(3.09662e-35 5.14021e-36 0)
(1.79684e-34 6.26539e-35 0)
(2.87869e-33 5.3485e-35 0)
(2.72799e-33 -1.21943e-34 0)
(-2.72771e-33 -1.21899e-34 0)
(-2.87621e-33 5.41478e-35 0)
(-1.46457e-34 6.84179e-35 0)
(1.79947e-34 7.29855e-35 0)
(3.05863e-33 1.17424e-34 0)
(5.63989e-33 -6.26094e-35 0)
(2.13138e-34 -1.75428e-34 0)
(-2.51482e-33 5.3485e-35 0)
(2.76145e-33 1.16139e-34 0)
(2.88118e-33 -5.41517e-35 0)
(1.79947e-34 -6.27025e-35 0)
(3.09957e-35 -5.14568e-36 0)
(2.2325e-36 -6.18622e-37 0)
(2.44646e-37 -4.45006e-38 0)
(1.72008e-38 -3.87764e-39 0)
(1.46995e-39 -2.57371e-40 0)
(9.66862e-41 -1.8748e-41 0)
(6.97743e-42 -1.14938e-42 0)
(4.52087e-43 -6.92336e-44 0)
(4.5344e-43 6.94721e-44 0)
(7.00286e-42 1.1533e-42 0)
(9.70841e-41 1.88172e-41 0)
(1.4765e-39 2.58447e-40 0)
(1.72905e-38 3.89523e-39 0)
(2.46019e-37 4.47391e-38 0)
(2.24822e-36 6.2224e-37 0)
(3.1223e-35 5.18627e-36 0)
(1.81932e-34 6.32761e-35 0)
(2.90991e-33 5.8671e-35 0)
(2.90991e-33 -5.8671e-35 0)
(1.81932e-34 -6.32761e-35 0)
(3.1223e-35 -5.18627e-36 0)
(2.24822e-36 -6.2224e-37 0)
(2.46019e-37 -4.47391e-38 0)
(1.72905e-38 -3.89523e-39 0)
(1.47649e-39 -2.58464e-40 0)
(9.69939e-41 -1.89802e-41 0)
(6.48491e-42 -2.8852e-42 0)
(-3.77443e-42 -9.99614e-42 0)
(3.63637e-37 -2.72961e-37 0)
(4.47495e-36 -2.63365e-36 0)
(2.7334e-35 -3.21372e-35 0)
(3.03356e-34 -2.74243e-35 0)
(2.80172e-34 6.25268e-35 0)
(-2.80126e-34 6.2505e-35 0)
(-3.02949e-34 -2.77549e-35 0)
(-2.24867e-35 -3.50827e-35 0)
(2.7377e-35 -3.74309e-35 0)
(3.30733e-34 -6.02026e-35 0)
(5.88372e-34 3.21153e-35 0)
(3.22181e-35 8.99511e-35 0)
(-2.47948e-34 -2.74243e-35 0)
(2.85056e-34 -5.95614e-35 0)
(3.03766e-34 2.77568e-35 0)
(2.7377e-35 3.21611e-35 0)
(4.48042e-36 2.63689e-36 0)
(3.67147e-37 3.08796e-37 0)
(3.97887e-38 2.19149e-38 0)
(2.98019e-39 1.87437e-39 0)
(2.55006e-40 1.22902e-40 0)
(1.74139e-41 8.84401e-42 0)
(1.2635e-42 5.37147e-43 0)
(8.39911e-44 3.2097e-44 0)
(8.42485e-44 -3.2206e-44 0)
(1.26825e-42 -5.38953e-43 0)
(1.74877e-41 -8.8761e-42 0)
(2.5619e-40 -1.23405e-40 0)
(2.99633e-39 -1.88267e-39 0)
(4.00261e-38 -2.20289e-38 0)
(3.6987e-37 -3.10546e-37 0)
(4.51719e-36 -2.65691e-36 0)
(2.77039e-35 -3.24477e-35 0)
(3.07873e-34 -3.00811e-35 0)
(3.07873e-34 3.00811e-35 0)
(2.77039e-35 3.24477e-35 0)
(4.51719e-36 2.65691e-36 0)
(3.6987e-37 3.10546e-37 0)
(4.00261e-38 2.20289e-38 0)
(2.99632e-39 1.88265e-39 0)
(2.56068e-40 1.23201e-40 0)
(1.61946e-41 6.92404e-42 0)
(-6.18382e-42 -2.05061e-41 0)
(-6.11473e-41 -1.23012e-40 0)
(6.75991e-38 -4.38486e-38 0)
(6.94716e-37 -4.23538e-37 0)
(2.60996e-36 -4.30953e-36 0)
(2.17122e-35 -3.55163e-36 0)
(1.97406e-35 8.33869e-36 0)
(-1.97312e-35 8.3349e-36 0)
(-2.16395e-35 -3.60547e-36 0)
(-1.8499e-36 -4.78363e-36 0)
(2.61872e-36 -5.16113e-36 0)
(2.43309e-35 -7.96536e-36 0)
(4.22121e-35 4.30571e-36 0)
(3.37741e-36 1.18903e-35 0)
(-1.6362e-35 -3.55162e-36 0)
(2.05081e-35 -7.86112e-36 0)
(2.17855e-35 3.6058e-36 0)
(2.61872e-36 4.31368e-36 0)
(6.955e-37 4.24075e-37 0)
(6.46039e-38 5.00591e-38 0)
(8.07707e-39 3.81568e-39 0)
(6.41731e-40 3.27777e-40 0)
(5.83047e-41 2.23669e-41 0)
(4.10674e-42 1.61992e-42 0)
(3.06885e-43 1.01046e-43 0)
(2.07693e-44 6.07688e-45 0)
(2.08344e-44 -6.09812e-45 0)
(3.08076e-43 -1.01395e-43 0)
(4.12497e-42 -1.626e-42 0)
(5.85919e-41 -2.24614e-41 0)
(6.45528e-40 -3.29295e-40 0)
(8.13123e-39 -3.83642e-39 0)
(6.51867e-38 -5.03643e-38 0)
(7.02927e-37 -4.27559e-37 0)
(2.67513e-36 -4.35988e-36 0)
(2.24151e-35 -3.97916e-36 0)
(2.24151e-35 3.97916e-36 0)
(2.67513e-36 4.35988e-36 0)
(7.02927e-37 4.27559e-37 0)
(6.51867e-38 5.03643e-38 0)
(8.13122e-39 3.8364e-39 0)
(6.45374e-40 3.2912e-40 0)
(5.71179e-41 2.01871e-41 0)
(-1.17395e-41 -2.02859e-41 0)
(-9.1873e-41 -2.38731e-40 0)
(-7.69513e-40 -1.41344e-39 0)
(7.83452e-39 -9.16615e-39 0)
(7.08879e-38 -7.91513e-38 0)
(1.84488e-37 -7.65826e-37 0)
(1.17635e-36 -6.25953e-37 0)
(1.0564e-36 1.4822e-36 0)
(-1.05525e-36 1.48137e-36 0)
(-1.16803e-36 -6.37196e-37 0)
(-1.06187e-37 -8.55504e-37 0)
(1.85552e-37 -9.25126e-37 0)
(1.3619e-36 -1.4135e-36 0)
(2.31095e-36 7.64982e-37 0)
(2.63676e-37 2.10816e-36 0)
(-7.92561e-37 -6.25951e-37 0)
(1.13559e-36 -1.39176e-36 0)
(1.18475e-36 6.37272e-37 0)
(1.85552e-37 7.66733e-37 0)
(7.09649e-38 7.92783e-38 0)
(7.33934e-39 1.0415e-38 0)
(9.80109e-40 8.35161e-40 0)
(8.1994e-41 7.6025e-41 0)
(7.65458e-42 5.3523e-42 0)
(5.55428e-43 3.99499e-43 0)
(4.21454e-44 2.53637e-44 0)
(2.90878e-45 1.54864e-45 0)
(2.9181e-45 -1.55415e-45 0)
(4.23136e-44 -2.54535e-44 0)
(5.57978e-43 -4.01048e-43 0)
(7.69396e-42 -5.37602e-42 0)
(8.2507e-41 -7.63989e-41 0)
(9.87203e-40 -8.40111e-40 0)
(7.41359e-39 -1.04856e-38 0)
(7.18619e-38 -8.00366e-38 0)
(1.91896e-37 -7.76303e-37 0)
(1.24821e-36 -7.05983e-37 0)
(1.24821e-36 7.05983e-37 0)
(1.91896e-37 7.76303e-37 0)
(7.18619e-38 8.00366e-38 0)
(7.41358e-39 1.04856e-38 0)
(9.8707e-40 8.39961e-40 0)
(8.07852e-41 7.45286e-41 0)
(-8.86295e-42 -1.91074e-41 0)
(-1.796e-40 -2.37683e-40 0)
(-1.05953e-39 -2.64004e-39 0)
(-8.96342e-39 -1.58791e-38 0)
(8.4785e-40 -1.92283e-39 0)
(7.8919e-39 -9.42569e-39 0)
(1.23471e-38 -8.36473e-38 0)
(4.32081e-38 -6.72748e-38 0)
(3.79637e-38 1.61445e-37 0)
(-3.78154e-38 1.6134e-37 0)
(-4.22058e-38 -6.86441e-38 0)
(-3.61516e-39 -9.40895e-38 0)
(1.24724e-38 -1.02188e-37 0)
(5.56721e-38 -1.53467e-37 0)
(8.98715e-38 8.34304e-38 0)
(2.11704e-38 2.28709e-37 0)
(-1.67708e-38 -6.72618e-38 0)
(4.67962e-38 -1.50799e-37 0)
(4.42045e-38 6.86541e-38 0)
(1.24724e-38 8.36557e-38 0)
(7.85247e-39 9.2769e-39 0)
(8.69376e-40 1.27577e-39 0)
(1.24687e-40 1.07287e-40 0)
(1.07779e-41 1.00209e-41 0)
(1.03645e-42 7.26712e-43 0)
(7.66132e-44 5.50791e-44 0)
(5.90142e-45 3.56453e-45 0)
(4.11942e-46 2.1967e-46 0)
(4.13278e-46 -2.20468e-46 0)
(5.92541e-45 -3.57744e-45 0)
(7.69739e-44 -5.52987e-44 0)
(1.04196e-42 -7.30042e-43 0)
(1.08486e-41 -1.00724e-41 0)
(1.25646e-40 -1.07958e-40 0)
(8.79105e-40 -1.28505e-39 0)
(7.96622e-39 -9.37405e-39 0)
(1.3215e-38 -8.48227e-38 0)
(5.1166e-38 -7.66352e-38 0)
(5.1166e-38 7.66352e-38 0)
(1.3215e-38 8.48227e-38 0)
(7.96621e-39 9.37405e-39 0)
(8.78992e-40 1.28496e-39 0)
(1.24227e-40 1.06548e-40 0)
(-7.70519e-42 -7.67677e-42 0)
(-1.7903e-40 -2.34057e-40 0)
(-1.99321e-39 -2.31152e-39 0)
(-1.19146e-38 -2.60447e-38 0)
(-1.03083e-37 -1.60465e-37 0)
(-1.19443e-39 -8.71681e-39 0)
(1.28913e-39 -2.96941e-39 0)
(9.20049e-40 -1.11174e-38 0)
(6.16231e-40 -8.05157e-39 0)
(4.05807e-40 1.90651e-38 0)
(-3.79336e-40 1.90708e-38 0)
(-4.34689e-40 -8.08572e-39 0)
(2.26014e-41 -1.11665e-38 0)
(8.13772e-40 -1.21444e-38 0)
(1.34769e-39 -1.81245e-38 0)
(1.75098e-39 9.8598e-39 0)
(1.63358e-39 2.69945e-38 0)
(1.23978e-39 -7.90773e-39 0)
(1.22992e-39 -1.77816e-38 0)
(6.34152e-40 8.08689e-39 0)
(8.13771e-40 9.8896e-39 0)
(7.36121e-40 1.12887e-39 0)
(8.62286e-41 1.63733e-40 0)
(1.28713e-41 1.41743e-41 0)
(1.14727e-42 1.36213e-42 0)
(1.12389e-43 1.00612e-43 0)
(8.4668e-45 7.74125e-45 0)
(6.59208e-46 5.06483e-46 0)
(4.6601e-47 3.1452e-47 0)
(4.67543e-47 -3.15675e-47 0)
(6.61937e-46 -5.08344e-46 0)
(8.50756e-45 -7.7727e-45 0)
(1.13004e-43 -1.01084e-43 0)
(1.15507e-42 -1.36936e-42 0)
(1.29751e-41 -1.42671e-41 0)
(8.72622e-41 -1.64994e-40 0)
(7.47828e-40 -1.14166e-39 0)
(8.86903e-40 -1.0039e-38 0)
(1.28174e-39 -9.0493e-39 0)
(1.28174e-39 9.0493e-39 0)
(8.86898e-40 1.0039e-38 0)
(7.47757e-40 1.14161e-39 0)
(8.61895e-41 1.64147e-40 0)
(-5.07859e-43 1.40734e-42 0)
(-1.77021e-40 -1.62037e-40 0)
(-1.75044e-39 -2.20063e-39 0)
(-1.96848e-38 -2.20366e-38 0)
(-1.20475e-37 -2.55295e-37 0)
(-1.05987e-36 -1.62301e-36 0)
(-1.32103e-38 -8.97157e-38 0)
(6.18001e-39 -1.87268e-38 0)
(1.41794e-39 -1.34872e-38 0)
(8.20269e-40 -2.18446e-39 0)
(-1.3849e-42 1.63511e-39 0)
(1.27544e-40 1.82554e-39 0)
(1.25296e-40 -7.78906e-40 0)
(2.0391e-41 -1.08589e-39 0)
(6.07928e-41 -1.18359e-39 0)
(-5.3147e-41 -1.74954e-39 0)
(-1.44079e-40 9.53844e-40 0)
(1.40102e-40 2.6043e-39 0)
(2.49932e-40 -7.58604e-40 0)
(-2.88299e-41 -1.71395e-39 0)
(-1.03919e-40 7.77226e-40 0)
(6.07817e-41 9.57027e-40 0)
(7.10153e-41 1.13437e-40 0)
(8.57081e-42 1.69737e-41 0)
(1.32113e-42 1.51261e-42 0)
(1.19992e-43 1.47992e-43 0)
(1.19386e-44 1.11397e-44 0)
(9.10107e-46 8.66331e-46 0)
(7.14514e-47 5.73815e-47 0)
(5.08894e-48 3.58546e-48 0)
(5.10581e-48 -3.5988e-48 0)
(7.17506e-47 -5.75953e-47 0)
(9.14556e-46 -8.69916e-46 0)
(1.20052e-44 -1.11932e-44 0)
(1.2083e-43 -1.488e-43 0)
(1.33214e-42 -1.52287e-42 0)
(8.67872e-42 -1.71104e-41 0)
(7.22146e-41 -1.148e-40 0)
(6.80074e-41 -9.72466e-40 0)
(-4.17151e-41 -8.73392e-40 0)
(-4.17175e-41 8.73391e-40 0)
(6.79642e-41 9.72441e-40 0)
(7.1569e-41 1.14382e-40 0)
(-1.11644e-42 1.08358e-41 0)
(-1.23006e-40 -9.46209e-41 0)
(-1.67248e-39 -1.23587e-39 0)
(-1.6706e-38 -1.69122e-38 0)
(-1.93028e-37 -1.73439e-37 0)
(-1.21701e-36 -2.06286e-36 0)
(-1.10886e-35 -1.38053e-35 0)
(-1.27788e-37 -8.12888e-37 0)
(7.37321e-38 -1.82706e-37 0)
(1.48466e-38 -1.29438e-37 0)
(9.46387e-39 -1.43732e-38 0)
(1.06061e-39 -1.88367e-39 0)
(1.73617e-40 2.62394e-42 0)
(3.03012e-41 -9.33112e-41 0)
(3.80166e-42 -1.08192e-40 0)
(4.76206e-42 -1.16772e-40 0)
(-1.06253e-41 -1.71666e-40 0)
(-2.26579e-41 9.36514e-41 0)
(1.15744e-41 2.55423e-40 0)
(2.58921e-41 -7.41829e-41 0)
(-7.24718e-42 -1.67992e-40 0)
(-1.43932e-41 7.61031e-41 0)
(4.65759e-42 9.39857e-41 0)
(6.17522e-42 1.1361e-41 0)
(7.66241e-43 1.74725e-42 0)
(1.20481e-43 1.58519e-43 0)
(1.11464e-44 1.57472e-44 0)
(1.12108e-45 1.19941e-45 0)
(8.64999e-47 9.40575e-47 0)
(6.83459e-48 6.27504e-48 0)
(4.90678e-49 3.93712e-49 0)
(4.92318e-49 -3.95186e-49 0)
(6.86354e-48 -6.29862e-48 0)
(8.69286e-47 -9.44511e-47 0)
(1.12745e-45 -1.20526e-45 0)
(1.1226e-44 -1.5835e-44 0)
(1.21515e-43 -1.59623e-43 0)
(7.76252e-43 -1.76179e-42 0)
(6.28438e-42 -1.15036e-41 0)
(5.30105e-42 -9.55721e-41 0)
(-9.00774e-42 -8.56859e-41 0)
(-9.02554e-42 8.56749e-41 0)
(4.98148e-42 9.53947e-41 0)
(1.48557e-42 8.46948e-42 0)
(-7.27012e-41 -4.42928e-41 0)
(-9.43369e-40 -7.18844e-40 0)
(-1.28876e-38 -9.39614e-39 0)
(-1.31633e-37 -1.32469e-37 0)
(-1.55779e-36 -1.40101e-36 0)
(-1.02764e-35 -1.75348e-35 0)
(-9.57243e-35 -1.25153e-34 0)
(-9.17516e-37 -7.68125e-36 0)
(8.93615e-37 -1.56352e-36 0)
(1.69721e-37 -1.08052e-36 0)
(9.88569e-38 -1.16597e-37 0)
(1.07912e-38 -1.612e-38 0)
(1.56045e-39 -1.34629e-39 0)
(1.36478e-40 -1.35194e-40 0)
(1.32873e-41 -1.87754e-41 0)
(1.34647e-42 -1.09884e-41 0)
(-1.0425e-42 -1.50669e-41 0)
(-2.28228e-42 8.20315e-42 0)
(9.75611e-43 2.23411e-41 0)
(2.36589e-42 -6.46423e-42 0)
(-7.80383e-43 -1.46851e-41 0)
(-1.41738e-42 6.63993e-42 0)
(3.78787e-43 8.23728e-42 0)
(5.31676e-43 1.01941e-42 0)
(6.70463e-44 1.59606e-43 0)
(1.07041e-44 1.47441e-44 0)
(1.00225e-45 1.48042e-45 0)
(1.0164e-46 1.14124e-46 0)
(7.90408e-48 9.00705e-48 0)
(6.27285e-49 6.05588e-49 0)
(4.52526e-50 3.81277e-50 0)
(4.54045e-50 -3.82714e-50 0)
(6.29959e-49 -6.07884e-49 0)
(7.9436e-48 -9.04517e-48 0)
(1.02224e-46 -1.14689e-46 0)
(1.00952e-45 -1.48881e-45 0)
(1.07977e-44 -1.48491e-44 0)
(6.79445e-44 -1.60972e-43 0)
(5.41339e-43 -1.03266e-42 0)
(4.34495e-43 -8.38205e-42 0)
(-9.62755e-43 -7.49935e-42 0)
(-1.0911e-42 7.44854e-42 0)
(-1.89717e-42 7.55545e-42 0)
(-3.48393e-41 -1.32105e-41 0)
(-5.51825e-40 -2.18183e-40 0)
(-7.20129e-39 -3.45418e-39 0)
(-1.01219e-37 -4.61107e-38 0)
(-1.06222e-36 -6.68348e-37 0)
(-1.31517e-35 -7.47015e-36 0)
(-9.11555e-35 -9.92369e-35 0)
(-9.05298e-34 -8.11407e-34 0)
(-3.84602e-36 -5.61662e-35 0)
(1.30221e-35 -1.35981e-35 0)
(1.93499e-36 -1.0241e-35 0)
(8.4211e-37 -1.0463e-36 0)
(8.78272e-38 -1.39454e-37 0)
(1.20998e-38 -1.12917e-38 0)
(1.02261e-39 -1.04128e-39 0)
(9.69773e-41 -7.46723e-41 0)
(7.11922e-42 -6.43986e-42 0)
(4.48116e-43 -1.64734e-42 0)
(-1.55665e-43 6.83842e-43 0)
(7.93172e-44 1.92125e-42 0)
(1.91992e-43 -5.55065e-43 0)
(-6.61528e-44 -1.26321e-42 0)
(-1.17583e-43 5.70572e-43 0)
(2.94089e-44 7.0969e-43 0)
(4.23348e-44 8.90985e-44 0)
(5.43008e-45 1.4141e-44 0)
(8.75866e-46 1.32157e-45 0)
(8.30072e-47 1.33712e-46 0)
(8.46867e-48 1.03861e-47 0)
(6.6383e-49 8.22977e-49 0)
(5.28643e-50 5.55792e-50 0)
(3.83289e-51 3.50476e-51 0)
(3.84577e-51 -3.51802e-51 0)
(5.30901e-50 -5.57909e-50 0)
(6.67153e-49 -8.26487e-49 0)
(8.51735e-48 -1.0438e-47 0)
(8.36056e-47 -1.34482e-46 0)
(8.83402e-46 -1.3312e-45 0)
(5.49917e-45 -1.42659e-44 0)
(4.30191e-44 -9.03188e-44 0)
(3.19274e-44 -7.23181e-43 0)
(-1.1851e-43 -6.58397e-43 0)
(-7.26435e-43 3.96482e-43 0)
(-1.10907e-41 -3.58789e-42 0)
(-1.70496e-40 -7.57327e-41 0)
(-2.69516e-39 -1.17955e-39 0)
(-3.58796e-38 -1.92436e-38 0)
(-5.15837e-37 -2.63354e-37 0)
(-5.63521e-36 -4.03827e-36 0)
(-7.23792e-35 -4.809e-35 0)
(-5.44593e-34 -7.16075e-34 0)
(-5.5906e-33 -6.77391e-33 0)
(7.66143e-35 -5.88142e-34 0)
(2.16708e-34 -1.03367e-34 0)
(2.81297e-35 -7.01076e-35 0)
(9.74053e-36 -6.88157e-36 0)
(9.37055e-37 -8.39775e-37 0)
(1.23475e-37 -6.54175e-38 0)
(9.99248e-39 -5.76605e-39 0)
(9.2744e-40 -4.00186e-40 0)
(6.60431e-41 -2.94856e-41 0)
(4.98237e-42 -1.93172e-42 0)
(3.08061e-43 -7.86849e-44 0)
(2.52043e-44 1.0421e-43 0)
(1.22376e-44 -3.23964e-44 0)
(-3.79123e-45 -7.29969e-44 0)
(-6.80989e-45 3.29307e-44 0)
(1.6606e-45 4.10691e-44 0)
(2.41639e-45 5.23881e-45 0)
(3.1268e-46 8.4776e-46 0)
(5.07355e-47 8.03987e-47 0)
(4.83788e-48 8.23973e-48 0)
(4.94837e-49 6.47198e-49 0)
(3.89192e-50 5.17233e-50 0)
(3.10063e-51 3.52112e-51 0)
(2.2505e-52 2.23219e-52 0)
(2.25568e-52 -2.24068e-52 0)
(3.10783e-51 -3.5346e-51 0)
(3.89722e-50 -5.19448e-50 0)
(4.9441e-49 -6.50444e-49 0)
(4.80047e-48 -8.28707e-48 0)
(4.96026e-47 -8.09756e-47 0)
(2.84339e-46 -8.54961e-46 0)
(1.79798e-45 -5.30309e-45 0)
(-1.07026e-44 -4.16816e-44 0)
(-2.44064e-43 -3.44416e-44 0)
(-4.15863e-42 8.95916e-44 0)
(-7.31424e-41 9.25567e-43 0)
(-1.13969e-39 1.46084e-41 0)
(-1.85726e-38 2.0966e-40 0)
(-2.52921e-37 2.60566e-39 0)
(-3.80954e-36 6.94191e-39 0)
(-4.30829e-35 -9.2805e-37 0)
(-5.97969e-34 -4.59098e-35 0)
(-4.77419e-33 -1.35916e-33 0)
(-5.73086e-32 -2.82434e-32 0)
(3.68025e-33 -3.98933e-33 0)
(5.7701e-33 -1.15516e-33 0)
(5.40615e-34 -9.5202e-34 0)
(9.81147e-35 -8.19559e-35 0)
(8.33068e-36 -9.79511e-36 0)
(9.45306e-37 -7.19136e-37 0)
(7.24776e-38 -6.25227e-38 0)
(6.35199e-39 -4.1935e-39 0)
(4.40384e-40 -3.05235e-40 0)
(3.23866e-41 -1.88357e-41 0)
(2.04327e-42 -1.20014e-42 0)
(1.31833e-43 -6.26516e-44 0)
(8.11823e-45 -5.60617e-45 0)
(2.65332e-46 -4.03064e-45 0)
(-2.85897e-46 1.71258e-45 0)
(7.59414e-47 2.15325e-45 0)
(1.09441e-46 2.77044e-46 0)
(1.43211e-47 4.4876e-47 0)
(2.34792e-48 4.27617e-48 0)
(2.2601e-49 4.37759e-49 0)
(2.3271e-50 3.4442e-50 0)
(1.84261e-51 2.74593e-51 0)
(1.47387e-52 1.86841e-52 0)
(1.0749e-53 1.18085e-53 0)
(1.08556e-53 -1.18187e-53 0)
(1.49799e-52 -1.86727e-52 0)
(1.89352e-51 -2.73757e-51 0)
(2.4356e-50 -3.41426e-50 0)
(2.48497e-49 -4.29442e-49 0)
(2.81494e-48 -4.06825e-48 0)
(2.36323e-47 -4.01112e-47 0)
(2.9396e-46 -1.74738e-46 0)
(3.53389e-45 -5.18324e-47 0)
(6.39472e-44 3.873e-44 0)
(1.10755e-42 7.66161e-43 0)
(1.90497e-41 1.32465e-41 0)
(2.95643e-40 2.28868e-40 0)
(4.66768e-39 3.47074e-39 0)
(6.34406e-38 5.02435e-38 0)
(9.13947e-37 4.16638e-37 0)
(1.03522e-35 -4.43628e-36 0)
(1.34409e-34 -4.55923e-34 0)
(1.08572e-33 -1.59537e-32 0)
(1.15994e-32 -4.01817e-31 0)
(9.65302e-32 -5.89672e-32 0)
(1.07348e-31 -3.68285e-33 0)
(7.33195e-33 -1.54387e-34 0)
(1.31414e-33 -4.88295e-36 0)
(9.96866e-35 -9.41585e-38 0)
(1.1168e-35 2.24469e-40 0)
(8.0971e-37 2.13696e-40 0)
(7.01636e-38 1.6209e-41 0)
(4.70627e-39 1.12213e-42 0)
(3.42811e-40 6.4403e-44 0)
(2.11664e-41 3.8715e-45 0)
(1.35226e-42 4.68259e-46 0)
(7.70838e-44 -6.66332e-47 0)
(4.41913e-45 -1.76059e-46 0)
(2.19383e-46 7.95515e-47 0)
(1.57903e-47 9.96206e-47 0)
(5.75385e-48 1.29647e-47 0)
(7.07573e-49 2.11643e-48 0)
(1.12617e-49 2.03449e-49 0)
(1.08095e-50 2.0929e-50 0)
(1.10826e-51 1.65642e-51 0)
(8.77639e-53 1.32423e-52 0)
(7.00264e-54 9.04272e-54 0)
(5.36904e-55 5.71971e-55 0)
(1.18139e-54 -5.76503e-55 0)
(2.33013e-53 -9.13415e-54 0)
(4.69967e-52 -1.34381e-52 0)
(9.85966e-51 -1.69747e-51 0)
(2.0337e-49 -2.18044e-50 0)
(4.25504e-48 -2.21567e-49 0)
(8.57064e-47 -2.4954e-48 0)
(1.71594e-45 -2.0541e-47 0)
(3.24757e-44 -2.51604e-46 0)
(6.07969e-43 -2.9393e-45 0)
(1.05573e-41 -5.37767e-44 0)
(1.82937e-40 -9.30237e-43 0)
(2.86006e-39 -1.61206e-41 0)
(4.56196e-38 -2.37351e-40 0)
(6.2627e-37 -3.1615e-39 0)
(9.15567e-36 -8.40916e-39 0)
(1.05284e-34 1.19472e-36 0)
(1.39981e-33 6.44798e-35 0)
(1.16514e-32 2.07634e-33 0)
(1.30822e-31 5.0078e-32 0)
(5.54286e-33 -5.81739e-32 0)
(4.82538e-33 -2.80616e-33 0)
(4.69582e-34 7.80989e-34 0)
(8.8092e-35 7.63335e-35 0)
(7.6338e-36 9.66213e-36 0)
(8.80656e-37 7.17393e-37 0)
(6.82462e-38 6.26068e-38 0)
(6.03322e-39 4.20213e-39 0)
(4.20926e-40 3.05868e-40 0)
(3.11189e-41 1.88689e-41 0)
(1.97185e-42 1.20447e-42 0)
(1.2745e-43 6.86019e-44 0)
(7.39883e-45 3.93469e-45 0)
(4.28735e-46 1.9965e-46 0)
(2.23579e-47 1.46787e-47 0)
(1.36828e-48 5.25543e-48 0)
(2.83786e-49 6.43925e-49 0)
(3.26221e-50 1.02006e-49 0)
(5.01954e-51 9.77581e-51 0)
(4.80647e-52 1.00076e-51 0)
(4.91445e-53 7.91913e-53 0)
(3.89939e-54 6.31156e-54 0)
(3.10916e-55 4.30505e-55 0)
(2.31027e-56 2.58158e-56 0)
(3.30972e-56 -6.16586e-56 0)
(5.49683e-55 -1.28971e-54 0)
(9.25997e-54 -2.72122e-53 0)
(1.63268e-52 -5.69917e-52 0)
(2.87562e-51 -1.22632e-50 0)
(5.18512e-50 -2.57856e-49 0)
(9.45112e-49 -5.45283e-48 0)
(1.63418e-47 -1.10528e-46 0)
(2.89468e-46 -2.223e-45 0)
(4.40942e-45 -4.21229e-44 0)
(7.2195e-44 -7.91242e-43 0)
(8.63264e-43 -1.37084e-41 0)
(1.27835e-41 -2.36764e-40 0)
(7.47057e-41 -3.57853e-39 0)
(1.0485e-39 -5.12315e-38 0)
(-2.11058e-38 -3.92218e-37 0)
(-1.83571e-37 6.23991e-36 0)
(-1.07917e-35 5.31504e-34 0)
(-6.70705e-35 1.82683e-32 0)
(-2.10435e-33 4.55865e-31 0)
(1.10612e-33 -3.1435e-33 0)
(-3.04236e-34 -2.18961e-34 0)
(-1.16977e-35 4.74784e-35 0)
(4.08936e-36 5.72005e-36 0)
(5.40543e-37 7.58672e-37 0)
(8.65996e-38 6.05105e-38 0)
(7.56671e-39 5.39481e-39 0)
(7.4452e-40 3.76822e-40 0)
(5.4846e-41 2.78422e-41 0)
(4.25827e-42 1.76294e-42 0)
(2.77723e-43 1.13859e-43 0)
(1.84159e-44 6.60544e-45 0)
(1.08639e-45 3.82735e-46 0)
(6.38776e-47 2.01429e-47 0)
(3.42623e-48 1.24802e-48 0)
(1.90711e-49 2.58881e-49 0)
(1.89131e-50 2.9705e-50 0)
(1.74771e-51 4.55143e-51 0)
(2.34056e-52 4.35162e-52 0)
(2.17055e-53 4.44206e-53 0)
(2.17453e-54 3.52166e-54 0)
(1.71476e-55 2.80479e-55 0)
(1.315e-56 1.91551e-56 0)
(-1.02802e-56 1.23539e-57 0)
(-2.80571e-55 -4.50564e-58 0)
(-6.86963e-54 1.27234e-58 0)
(-1.61884e-52 2.0292e-55 0)
(-3.73618e-51 8.04727e-54 0)
(-8.24975e-50 2.29005e-52 0)
(-1.78978e-48 5.67768e-51 0)
(-3.68096e-47 1.3128e-49 0)
(-7.47935e-46 2.78793e-48 0)
(-1.42098e-44 5.84287e-47 0)
(-2.69295e-43 1.11835e-45 0)
(-4.67175e-42 2.18077e-44 0)
(-8.22236e-41 3.80524e-43 0)
(-1.28055e-39 7.10466e-42 0)
(-2.08569e-38 1.21991e-40 0)
(-2.83864e-37 2.67587e-39 0)
(-4.27299e-36 6.60961e-38 0)
(-4.82875e-35 2.10271e-36 0)
(-6.69766e-34 6.32843e-35 0)
(-5.34196e-33 1.68225e-33 0)
(-6.40958e-32 3.29939e-32 0)
(7.00777e-35 -5.28937e-34 0)
(-2.8982e-35 -3.59865e-35 0)
(-2.04142e-36 2.33322e-36 0)
(1.00986e-37 4.36802e-37 0)
(2.51205e-38 7.66332e-38 0)
(5.03752e-39 6.78664e-39 0)
(4.81825e-40 6.69613e-40 0)
(4.99356e-41 4.93235e-41 0)
(3.83584e-42 3.82633e-42 0)
(3.05173e-43 2.49387e-43 0)
(2.04033e-44 1.65261e-44 0)
(1.37301e-45 9.74413e-46 0)
(8.23301e-47 5.7276e-47 0)
(4.89003e-48 3.07953e-48 0)
(2.66273e-49 1.72068e-49 0)
(1.46269e-50 1.71611e-50 0)
(1.11981e-51 1.58773e-51 0)
(8.89231e-53 2.12161e-52 0)
(1.0422e-53 1.96525e-53 0)
(9.31936e-55 1.9659e-54 0)
(9.122e-56 1.54916e-55 0)
(7.1488e-57 1.22614e-56 0)
(6.12244e-58 8.7857e-58 0)
(1.31677e-57 1.2049e-57 0)
(3.18626e-56 2.96975e-56 0)
(7.75579e-55 7.42208e-55 0)
(1.81998e-53 1.81394e-53 0)
(4.17462e-52 4.26964e-52 0)
(9.1746e-51 9.84185e-51 0)
(1.9745e-49 2.17131e-49 0)
(4.03613e-48 4.7047e-48 0)
(8.10998e-47 9.66819e-47 0)
(1.52791e-45 1.96148e-45 0)
(2.84997e-44 3.72324e-44 0)
(4.88589e-43 7.042e-43 0)
(8.40314e-42 1.22041e-41 0)
(1.28626e-40 2.14244e-40 0)
(2.02368e-39 3.33415e-39 0)
(2.68176e-38 5.41861e-38 0)
(3.82215e-37 7.40331e-37 0)
(4.13073e-36 1.12208e-35 0)
(5.22653e-35 1.31312e-34 0)
(3.84377e-34 1.8922e-33 0)
(3.8762e-33 1.69835e-32 0)
(7.4537e-36 -3.28637e-35 0)
(-3.62117e-36 -2.57296e-36 0)
(-2.79394e-37 5.13025e-38 0)
(-1.23308e-38 2.12052e-38 0)
(5.06529e-40 4.5087e-39 0)
(2.8374e-40 4.3408e-40 0)
(3.21143e-41 4.49981e-41 0)
(3.71975e-42 3.45431e-42 0)
(3.01817e-43 2.74541e-43 0)
(2.50792e-44 1.83426e-44 0)
(1.72241e-45 1.23351e-45 0)
(1.18461e-46 7.39295e-47 0)
(7.20882e-48 4.38949e-48 0)
(4.33249e-49 2.39284e-49 0)
(2.38376e-50 1.31696e-50 0)
(1.30119e-51 1.01292e-51 0)
(8.13139e-53 8.06123e-53 0)
(5.38817e-54 9.44145e-54 0)
(5.05573e-55 8.43626e-55 0)
(4.16001e-56 8.24691e-56 0)
(3.85557e-57 6.4566e-57 0)
(3.278e-58 5.09646e-58 0)
(8.65395e-58 8.39085e-59 0)
(2.17386e-56 1.30691e-57 0)
(5.42708e-55 3.36896e-56 0)
(1.32508e-53 8.4173e-55 0)
(3.11663e-52 2.05713e-53 0)
(7.17829e-51 4.84237e-52 0)
(1.58267e-49 1.11658e-50 0)
(3.42637e-48 2.46417e-49 0)
(7.03659e-47 5.34227e-48 0)
(1.4261e-45 1.09834e-46 0)
(2.7049e-44 2.23e-45 0)
(5.10904e-43 4.23545e-44 0)
(8.84528e-42 8.01932e-43 0)
(1.54978e-40 1.39127e-41 0)
(2.40746e-39 2.44881e-40 0)
(3.89653e-38 3.83338e-39 0)
(5.28534e-37 6.33683e-38 0)
(7.88311e-36 9.1244e-37 0)
(8.86594e-35 1.55091e-35 0)
(1.21224e-33 2.40647e-34 0)
(9.59668e-33 4.63853e-33 0)
(1.12224e-31 6.88267e-32 0)
(4.57378e-37 -3.41404e-36 0)
(-2.27288e-37 -2.68156e-37 0)
(-1.91997e-38 -1.18347e-38 0)
(-1.35379e-39 4.43072e-40 0)
(-2.30794e-41 2.56938e-40 0)
(1.19552e-41 2.90702e-41 0)
(1.62775e-42 3.35959e-42 0)
(2.0608e-43 2.7226e-43 0)
(1.75642e-44 2.25955e-44 0)
(1.50539e-45 1.55068e-45 0)
(1.0601e-46 1.06576e-46 0)
(7.41016e-48 6.48251e-48 0)
(4.57844e-49 3.89445e-49 0)
(2.77906e-50 2.14345e-50 0)
(1.54541e-51 1.17086e-51 0)
(8.45469e-53 7.33604e-53 0)
(4.90132e-54 4.87135e-54 0)
(2.96198e-55 4.57446e-55 0)
(2.36806e-56 3.76358e-56 0)
(1.80014e-57 3.48401e-57 0)
(1.59241e-58 2.67255e-58 0)
(6.84653e-59 1.97154e-59 0)
(1.49802e-57 -2.57829e-59 0)
(3.86538e-56 -7.17472e-58 0)
(9.65601e-55 -1.85152e-56 0)
(2.35935e-53 -4.62286e-55 0)
(5.55268e-52 -1.12875e-53 0)
(1.28002e-50 -2.655e-52 0)
(2.82414e-49 -6.11525e-51 0)
(6.12048e-48 -1.34838e-49 0)
(1.25792e-46 -2.91925e-48 0)
(2.55274e-45 -5.99553e-47 0)
(4.84615e-44 -1.21503e-45 0)
(9.16871e-43 -2.30378e-44 0)
(1.58903e-41 -4.34355e-43 0)
(2.7903e-40 -7.46384e-42 0)
(4.33989e-39 -1.27132e-40 0)
(7.04582e-38 -1.75433e-39 0)
(9.5716e-37 -1.70409e-38 0)
(1.43414e-35 3.3193e-37 0)
(1.61613e-34 2.64078e-35 0)
(2.22649e-33 1.11984e-33 0)
(1.76813e-32 3.4374e-32 0)
(2.10016e-31 8.03078e-31 0)
(3.6664e-38 -2.08173e-37 0)
(-1.81939e-38 -1.75998e-38 0)
(-1.55793e-39 -1.22179e-39 0)
(-1.57781e-40 -1.97972e-41 0)
(-7.21518e-42 1.09206e-41 0)
(2.24739e-43 1.47792e-42 0)
(7.01045e-44 1.86375e-43 0)
(1.10919e-44 1.58589e-44 0)
(1.02672e-45 1.35733e-45 0)
(9.2908e-47 9.55065e-47 0)
(6.75463e-48 6.67113e-48 0)
(4.83377e-49 4.11981e-49 0)
(3.03481e-50 2.49963e-50 0)
(1.86415e-51 1.39011e-51 0)
(1.04605e-52 7.60739e-53 0)
(5.74208e-54 4.41719e-54 0)
(3.16264e-55 2.67374e-55 0)
(1.77475e-56 2.14038e-56 0)
(1.20464e-57 1.62753e-57 0)
(8.23085e-59 1.42018e-58 0)
(6.61708e-60 1.0507e-59 0)
(2.22409e-60 -2.93869e-60 0)
(4.63554e-59 -1.01972e-58 0)
(1.19624e-57 -2.69489e-57 0)
(2.98897e-56 -6.95842e-56 0)
(7.30541e-55 -1.73843e-54 0)
(1.71973e-53 -4.24809e-53 0)
(3.96576e-52 -9.99885e-52 0)
(8.75215e-51 -2.30522e-50 0)
(1.89756e-49 -5.08674e-49 0)
(3.90119e-48 -1.10255e-47 0)
(7.92093e-47 -2.26635e-46 0)
(1.50424e-45 -4.59972e-45 0)
(2.84784e-44 -8.73194e-44 0)
(4.9376e-43 -1.65089e-42 0)
(8.67781e-42 -2.85127e-41 0)
(1.35034e-40 -4.94018e-40 0)
(2.19491e-39 -7.27414e-39 0)
(2.98343e-38 -9.68979e-38 0)
(4.47802e-37 -2.59097e-37 0)
(5.04987e-36 3.6552e-35 0)
(6.97706e-35 1.97357e-33 0)
(5.54683e-34 6.35575e-32 0)
(6.62718e-33 1.53294e-30 0)
(2.11422e-39 -1.65375e-38 0)
(-1.04436e-39 -1.41071e-39 0)
(-9.37489e-41 -1.41509e-40 0)
(-1.08917e-41 -6.40235e-42 0)
(-6.10052e-43 2.1393e-43 0)
(-1.05507e-44 6.40164e-44 0)
(2.2376e-45 1.00508e-44 0)
(4.92165e-46 9.28183e-46 0)
(4.99321e-47 8.38473e-47 0)
(4.75483e-48 6.09028e-48 0)
(3.56907e-49 4.35492e-49 0)
(2.60786e-50 2.73276e-50 0)
(1.66463e-51 1.67787e-51 0)
(1.03387e-52 9.41408e-53 0)
(5.85954e-54 5.16786e-54 0)
(3.23333e-55 2.84872e-55 0)
(1.74571e-56 1.60021e-56 0)
(9.4519e-58 1.08756e-57 0)
(5.80603e-59 7.436e-59 0)
(3.57746e-60 5.91849e-60 0)
(-1.81049e-60 3.82686e-61 0)
(-5.65022e-59 -1.15087e-60 0)
(-1.49282e-57 -3.21544e-59 0)
(-3.85433e-56 -8.49018e-58 0)
(-9.62854e-55 -2.19105e-56 0)
(-2.35268e-53 -5.47134e-55 0)
(-5.53706e-52 -1.33614e-53 0)
(-1.27644e-50 -3.14324e-52 0)
(-2.81629e-49 -7.24114e-51 0)
(-6.10359e-48 -1.59686e-49 0)
(-1.25447e-46 -3.4579e-48 0)
(-2.5458e-45 -7.10285e-47 0)
(-4.83303e-44 -1.43979e-45 0)
(-9.14417e-43 -2.73047e-44 0)
(-1.5848e-41 -5.15051e-43 0)
(-2.78298e-40 -8.85934e-42 0)
(-4.32857e-39 -1.51439e-40 0)
(-7.0278e-38 -2.12022e-39 0)
(-9.54726e-37 -2.23543e-38 0)
(-1.4306e-35 2.91121e-37 0)
(-1.61216e-34 2.70013e-35 0)
(-2.22132e-33 1.17334e-33 0)
(-1.76406e-32 3.62141e-32 0)
(-2.09599e-31 8.4921e-31 0)
(1.40704e-40 -9.50107e-40 0)
(-6.90193e-41 -8.48501e-41 0)
(-6.25958e-42 -9.78498e-42 0)
(-8.32939e-43 -5.44931e-43 0)
(-5.31911e-44 -8.91795e-45 0)
(-2.54564e-45 2.06271e-45 0)
(-1.04868e-47 4.46855e-46 0)
(1.77726e-47 4.5195e-47 0)
(2.23249e-48 4.29519e-48 0)
(2.34574e-49 3.22083e-49 0)
(1.84809e-50 2.35148e-50 0)
(1.39403e-51 1.50019e-51 0)
(9.08246e-53 9.31319e-53 0)
(5.72262e-54 5.27729e-54 0)
(3.27701e-55 2.91179e-55 0)
(1.81952e-56 1.57279e-56 0)
(9.70244e-58 8.51903e-58 0)
(5.12366e-59 5.2394e-59 0)
(2.90169e-60 3.48178e-60 0)
(1.17217e-61 2.67381e-61 0)
(-1.23721e-60 8.31918e-62 0)
(-3.39257e-59 1.74412e-60 0)
(-8.95653e-58 4.74249e-59 0)
(-2.31113e-56 1.25289e-57 0)
(-5.77051e-55 3.23591e-56 0)
(-1.40901e-53 8.08607e-55 0)
(-3.3142e-52 1.97658e-53 0)
(-7.63373e-51 4.6536e-52 0)
(-1.68316e-49 1.07332e-50 0)
(-3.64406e-48 2.36919e-49 0)
(-7.48387e-47 5.13794e-48 0)
(-1.51681e-45 1.05658e-46 0)
(-2.87697e-44 2.14601e-45 0)
(-5.43418e-43 4.077e-44 0)
(-9.40803e-42 7.72309e-43 0)
(-1.64839e-40 1.34033e-41 0)
(-2.5605e-39 2.36097e-40 0)
(-4.14418e-38 3.69916e-39 0)
(-5.62049e-37 6.13009e-38 0)
(-8.38278e-36 8.87663e-37 0)
(-9.42532e-35 1.52618e-35 0)
(-1.28876e-33 2.41888e-34 0)
(-1.01978e-32 4.74024e-33 0)
(-1.19315e-31 7.16174e-32 0)
(-1.48794e-35 8.37582e-31 0)
(6.24891e-42 -7.29878e-41 0)
(-3.053e-42 -6.61347e-42 0)
(-2.85348e-43 -8.82443e-43 0)
(-4.01152e-44 -5.67845e-44 0)
(-2.72929e-45 -2.80282e-45 0)
(-1.59677e-46 -2.24066e-47 0)
(-4.31087e-48 1.75827e-47 0)
(4.56889e-49 2.26605e-48 0)
(7.6618e-50 2.40416e-49 0)
(8.85315e-51 1.90314e-50 0)
(7.28313e-52 1.43955e-51 0)
(5.63805e-53 9.39756e-53 0)
(3.73905e-54 5.92839e-54 0)
(2.38357e-55 3.39856e-55 0)
(1.37783e-56 1.88736e-56 0)
(7.69602e-58 1.00204e-57 0)
(4.10765e-59 4.69059e-59 0)
(2.56615e-60 2.91373e-60 0)
(1.45829e-61 5.79498e-60 0)
(-1.98484e-61 7.50391e-61 0)
(-1.69785e-61 1.65212e-61 0)
(-3.904e-60 1.11854e-60 0)
(-1.02751e-58 3.00893e-59 0)
(-2.64398e-57 7.94347e-58 0)
(-6.58574e-56 2.04983e-56 0)
(-1.60226e-54 5.11839e-55 0)
(-3.75744e-53 1.24989e-53 0)
(-8.61387e-52 2.94023e-52 0)
(-1.89212e-50 6.7733e-51 0)
(-4.07103e-49 1.49367e-49 0)
(-8.32088e-48 3.23449e-48 0)
(-1.67243e-46 6.64421e-47 0)
(-3.15271e-45 1.34702e-45 0)
(-5.88725e-44 2.55578e-44 0)
(-1.01103e-42 4.82955e-43 0)
(-1.74299e-41 8.36558e-42 0)
(-2.6777e-40 1.46681e-40 0)
(-4.23131e-39 2.28126e-39 0)
(-5.64801e-38 3.70105e-38 0)
(-8.11153e-37 5.05168e-37 0)
(-8.89517e-36 7.6346e-36 0)
(-1.13889e-34 8.91361e-35 0)
(-8.6178e-34 1.27784e-33 0)
(-8.75055e-33 1.14122e-32 0)
(-1.20525e-36 1.30079e-31 0)
(-2.22665e-41 -1.91531e-40 0)
(1.08668e-41 -1.72921e-41 0)
(1.01695e-42 -2.27317e-42 0)
(1.44098e-43 -1.44054e-43 0)
(9.86463e-45 -6.63314e-45 0)
(5.87661e-46 4.21198e-48 0)
(1.69184e-47 5.21877e-47 0)
(-1.49539e-48 6.39053e-48 0)
(-2.64025e-49 6.6478e-49 0)
(-3.0937e-50 5.21328e-50 0)
(-2.55916e-51 3.92075e-51 0)
(-1.98768e-52 2.54961e-52 0)
(-1.32078e-53 1.60418e-53 0)
(-8.43047e-55 9.17711e-55 0)
(-4.87763e-56 5.06585e-56 0)
(-2.72193e-57 2.58211e-57 0)
(-1.3982e-58 -3.90525e-59 0)
(5.56105e-60 5.86235e-60 0)
(4.98145e-61 1.66947e-58 0)
(-6.13764e-60 2.17939e-59 0)
(-8.28186e-61 3.7067e-60 0)
(-6.79024e-61 4.87968e-61 0)
(-1.43495e-59 3.51039e-60 0)
(-3.70446e-58 9.15307e-59 0)
(-9.26327e-57 2.35527e-57 0)
(-2.26146e-55 5.86686e-56 0)
(-5.31958e-54 1.42745e-54 0)
(-1.22255e-52 3.34777e-53 0)
(-2.69069e-51 7.67553e-52 0)
(-5.79641e-50 1.68621e-50 0)
(-1.18524e-48 3.62858e-49 0)
(-2.38111e-47 7.41793e-48 0)
(-4.48052e-46 1.49128e-46 0)
(-8.34236e-45 2.812e-45 0)
(-1.42507e-43 5.25277e-44 0)
(-2.44054e-42 9.02446e-43 0)
(-3.70731e-41 1.5566e-41 0)
(-5.78459e-40 2.39328e-40 0)
(-7.54806e-39 3.78649e-39 0)
(-1.05939e-37 5.06864e-38 0)
(-1.10828e-36 7.31777e-37 0)
(-1.36644e-35 8.14098e-36 0)
(-9.37059e-35 1.062e-34 0)
(-9.29228e-34 8.4336e-34 0)
(-1.38974e-37 8.52383e-33 0)
(-4.21267e-40 -2.87722e-39 0)
(2.06628e-40 -2.56869e-40 0)
(1.87448e-41 -2.96543e-41 0)
(2.47733e-42 -1.65193e-42 0)
(1.57299e-43 -2.70777e-44 0)
(7.26721e-45 6.25413e-45 0)
(-1.9101e-48 1.35577e-45 0)