/*--------------------------------*- C++ -*----------------------------------*\
| =========                 |                                                 |
| \\      /  F ield         | OpenFOAM: The Open Source CFD Toolbox           |
|  \\    /   O peration     | Version:  2.4.0                                 |
|   \\  /    A nd           | Web:      www.OpenFOAM.org                      |
|    \\/     M anipulation  |                                                 |
\*---------------------------------------------------------------------------*/
FoamFile
{
    version     2.0;
    format      ascii;
    class       surfaceScalarField;
    location    "0.8";
    object      phi;
}
// * * * * * * * * * * * * * * * * * * * * * * * * * * * * * * * * * * * * * //

dimensions      [0 3 -1 0 0 0 0];

internalField   nonuniform List<scalar> 
15214
(
4.04623e-39
1.02612e-40
2.09816e-38
5.57188e-40
3.02803e-38
3.54053e-39
5.78021e-37
2.59431e-39
8.55472e-41
-6.80588e-39
-5.77404e-37
-6.79251e-39
-2.56659e-38
2.70921e-39
4.16079e-39
4.20032e-39
4.78097e-38
4.66905e-39
6.12451e-37
6.35276e-39
6.03613e-37
-3.5268e-39
-5.22062e-37
-9.40015e-39
2.56772e-38
2.59427e-39
5.827e-37
6.13444e-39
3.08953e-38
-2.71104e-39
2.10751e-38
-3.556e-39
4.08459e-39
-5.58606e-40
5.3036e-40
-1.01592e-40
7.63457e-41
-1.35897e-41
9.22237e-42
-1.84011e-42
1.12311e-42
-2.16637e-43
1.23664e-43
-2.48851e-44
1.34616e-44
-2.62167e-45
2.69355e-45
-2.41634e-46
1.35792e-44
2.43988e-46
1.24872e-43
2.64492e-45
1.13508e-42
2.51265e-44
9.33243e-42
2.18988e-43
7.73425e-41
1.86232e-42
5.38432e-40
1.37809e-41
4.15146e-39
1.03211e-40
2.15269e-38
5.70306e-40
3.4431e-38
3.64357e-39
5.99537e-37
3.16436e-39
3.4431e-38
-3.16436e-39
2.15269e-38
-3.64357e-39
4.15146e-39
-5.70306e-40
5.38432e-40
-1.03211e-40
7.73423e-41
-1.37813e-41
9.33132e-42
-1.8652e-42
1.12875e-42
-2.40003e-43
9.87366e-44
-1.54972e-43
-8.27699e-44
-7.51286e-43
-6.89612e-44
-3.00239e-42
1.00307e-43
-1.14411e-41
-1.99467e-42
1.40428e-39
-1.19026e-40
6.95761e-39
-8.824e-40
3.80695e-38
-5.26805e-39
6.00551e-38
-3.74609e-39
3.57999e-41
1.00634e-38
-5.98072e-38
1.0045e-38
-3.64322e-38
-3.91211e-39
1.45763e-39
-6.30158e-39
4.38563e-38
-7.05636e-39
9.95774e-38
-9.3298e-39
6.86485e-38
5.24935e-39
-1.33556e-38
1.38095e-38
8.62919e-39
-3.74605e-39
6.17192e-38
-9.01377e-39
3.83166e-38
3.91442e-39
6.9973e-39
5.28915e-39
1.42596e-39
8.86206e-40
2.11662e-40
1.47712e-40
3.17332e-41
1.86319e-41
4.07727e-42
2.31541e-42
5.11243e-43
2.55573e-43
5.8284e-44
2.75846e-44
6.48211e-45
2.76759e-45
1.32604e-45
2.45119e-46
6.54083e-45
-2.47344e-46
5.88776e-44
-2.79034e-45
5.16987e-43
-2.78295e-44
4.129e-42
-2.58068e-43
3.21848e-41
-2.34017e-42
2.15215e-40
-1.88593e-41
1.4535e-39
-1.49767e-40
7.1762e-39
-9.02467e-40
3.95228e-38
-5.41772e-39
6.72267e-38
-4.64826e-39
3.95228e-38
4.64826e-39
7.1762e-39
5.41772e-39
1.4535e-39
9.02467e-40
2.15215e-40
1.49766e-40
3.21832e-41
1.88568e-41
4.11863e-42
2.3206e-42
4.57541e-43
1.13656e-43
-1.88881e-43
-8.77078e-43
-9.15958e-43
-5.29813e-42
-6.78731e-43
-2.1673e-41
9.25842e-43
-8.38758e-41
-1.4613e-41
3.55947e-40
-4.61956e-41
1.40294e-39
-3.19421e-40
5.92154e-39
-1.57703e-39
8.81615e-39
-1.03122e-39
1.14521e-41
2.99259e-39
-8.74369e-39
2.98492e-39
-5.50069e-39
-1.09615e-39
3.70082e-40
-1.95489e-39
7.03875e-39
-2.22521e-39
1.51061e-38
-2.73121e-39
1.06388e-38
1.56907e-39
-1.06033e-39
4.02377e-39
1.83408e-39
-1.03117e-39
9.2453e-39
-2.60793e-39
5.99366e-39
1.09716e-39
1.41517e-39
1.58579e-39
3.60035e-40
3.2085e-40
6.08572e-41
5.73119e-41
1.0071e-41
7.80345e-42
1.3841e-42
1.01305e-42
1.8271e-43
1.16896e-43
2.16502e-44
1.30067e-44
2.48342e-45
1.34382e-45
5.20333e-46
1.21424e-46
2.50686e-45
-1.22571e-46
2.18825e-44
-1.35533e-45
1.84902e-43
-1.3128e-44
1.40324e-42
-1.18105e-43
1.02316e-41
-1.02469e-42
6.20537e-41
-7.90707e-42
3.68679e-40
-5.82053e-41
1.46559e-39
-3.27614e-40
6.29006e-39
-1.63506e-39
1.02802e-38
-1.35867e-39
6.29006e-39
1.35867e-39
1.46559e-39
1.63506e-39
3.68678e-40
3.27614e-40
6.2052e-41
5.82035e-41
1.02195e-41
7.89131e-42
1.32741e-42
8.9983e-43
-2.55077e-43
-8.15186e-43
-1.83712e-42
-5.92617e-42
-7.0224e-42
-3.54451e-41
-5.2297e-42
-1.48184e-40
6.91857e-42
-5.84606e-40
-1.0165e-40
6.56805e-41
-1.69272e-41
2.08681e-40
-9.17759e-41
7.04637e-40
-4.1617e-40
9.95653e-40
-2.62406e-40
2.58292e-42
7.87763e-40
-9.8044e-40
7.85343e-40
-6.25811e-40
-2.82039e-40
6.84715e-41
-5.23559e-40
8.62579e-40
-5.99291e-40
1.76831e-39
-7.14959e-40
1.28273e-39
4.12727e-40
-1.32663e-42
1.04999e-39
2.89658e-40
-2.62178e-40
1.07627e-39
-6.77366e-40
7.19724e-40
2.82377e-40
2.11325e-40
4.18108e-40
6.62242e-41
9.0977e-41
1.25832e-41
1.74031e-41
2.25343e-42
2.50259e-42
3.27681e-43
3.40273e-43
4.50095e-44
4.07481e-44
5.50522e-45
4.67226e-45
6.46947e-46
4.9465e-46
1.38256e-46
4.55128e-47
6.53265e-46
-4.59565e-47
5.56683e-45
-4.99038e-46
4.55791e-44
-4.71773e-45
3.32532e-43
-4.11919e-44
2.2928e-42
-3.44441e-43
1.28646e-41
-2.53857e-42
6.81389e-41
-1.77016e-41
2.21564e-40
-9.31299e-41
7.72707e-40
-4.32926e-40
1.21683e-39
-3.55267e-40
7.72707e-40
3.55267e-40
2.21564e-40
4.32926e-40
6.81375e-41
9.31288e-41
1.28535e-41
1.76912e-41
2.21078e-42
2.44683e-42
-1.90616e-43
-3.916e-43
-3.03487e-42
-5.5475e-42
-1.32314e-41
-3.62458e-41
-5.08779e-41
-2.21328e-40
-3.83463e-41
-9.51902e-40
4.90049e-41
-3.83739e-39
-6.67008e-40
1.07825e-41
-2.42871e-41
2.702e-41
-2.84762e-41
6.4071e-41
-8.90963e-41
8.24175e-41
-5.19429e-41
5.38964e-43
1.56508e-40
-7.94637e-41
1.56204e-40
-5.04805e-41
-5.4923e-41
1.15453e-41
-1.05911e-40
8.25019e-41
-1.21851e-40
1.57711e-40
-1.41572e-40
1.22435e-40
8.21021e-41
2.22054e-41
2.07276e-40
4.06165e-41
-5.04417e-41
9.61332e-41
-1.33121e-40
6.67665e-41
5.49974e-41
2.72804e-41
8.33676e-41
1.10954e-41
1.93356e-41
2.34142e-42
3.89775e-42
4.51199e-43
5.87015e-43
6.87918e-44
8.27588e-44
9.78878e-45
1.02191e-44
1.22975e-45
1.1999e-45
1.47619e-46
1.29616e-46
3.20792e-47
1.21004e-47
1.49103e-46
-1.22215e-47
1.24402e-45
-1.30799e-46
9.91843e-45
-1.21199e-45
6.98722e-44
-1.03352e-44
4.59726e-43
-8.38263e-44
2.40013e-42
-5.96007e-43
1.14753e-41
-3.97002e-42
2.9151e-41
-1.98375e-41
7.53821e-41
-8.66578e-41
1.1141e-40
-7.0269e-41
7.5382e-41
7.02689e-41
2.915e-41
8.66573e-41
1.14665e-41
1.98316e-41
2.33007e-42
3.91501e-42
-6.67036e-44
1.04102e-43
-3.33902e-42
-3.92403e-42
-2.04325e-41
-3.10305e-41
-8.97074e-41
-2.06354e-40
-3.52208e-40
-1.29853e-39
-2.69273e-40
-5.79797e-39
3.30654e-40
-2.40631e-38
-4.1702e-39
-2.57768e-43
-1.36822e-40
5.11845e-42
-6.24433e-41
5.16486e-42
-5.61416e-41
4.47645e-42
-1.8481e-41
2.26671e-43
2.67504e-41
-3.3935e-42
2.8321e-41
-1.97467e-42
-9.98868e-42
1.7772e-42
-1.96263e-41
6.00682e-42
-2.26382e-41
9.73235e-42
-2.58861e-41
9.11942e-42
1.50303e-41
5.46792e-42
3.78049e-41
5.30549e-42
-9.04279e-42
6.05551e-42
-2.41925e-41
4.54631e-42
9.95824e-42
3.23687e-42
1.52932e-41
1.69723e-42
3.69233e-42
3.90017e-43
7.78682e-43
7.95328e-44
1.21666e-43
1.25958e-44
1.76991e-44
1.8436e-45
2.24163e-45
2.36826e-46
2.68638e-46
2.8936e-47
2.95104e-47
6.3789e-48
2.7893e-48
2.92341e-47
-2.81784e-48
2.39659e-46
-2.97864e-47
1.86896e-45
-2.71425e-46
1.28033e-44
-2.26802e-45
8.11332e-44
-1.79376e-44
4.00712e-43
-1.23633e-43
1.76369e-42
-7.9408e-43
3.54365e-42
-3.79576e-42
5.82818e-42
-1.59457e-41
7.43493e-42
-1.28363e-41
5.82757e-42
1.28361e-41
3.53795e-42
1.5943e-41
1.71316e-42
3.76865e-42
-8.47676e-45
5.37013e-43
-3.04093e-42
-2.20937e-42
-2.05742e-41
-1.93444e-41
-1.26161e-40
-1.53648e-40
-5.68163e-40
-1.05467e-39
-2.2854e-39
-6.89947e-39
-1.77576e-39
-3.24042e-38
2.07881e-39
-1.38807e-37
-2.40972e-38
-9.83025e-42
-8.16002e-40
1.54312e-41
-3.51701e-40
7.85431e-42
-2.51699e-40
3.66775e-42
-5.75748e-41
9.18169e-43
-6.9303e-42
5.14137e-43
2.88513e-42
2.94284e-43
-1.88169e-42
2.69038e-43
-3.28808e-42
2.45205e-43
-3.76794e-42
6.17157e-44
-4.2442e-42
4.2929e-43
2.46649e-42
9.91939e-43
6.18346e-42
6.93533e-43
-1.45575e-42
7.40273e-44
-3.944e-42
1.25317e-43
1.61815e-42
3.83782e-43
2.5145e-42
2.51456e-43
6.28449e-43
6.14744e-44
1.37448e-43
1.3085e-44
2.21474e-44
2.13366e-45
3.30553e-45
3.19452e-46
4.27689e-46
4.17823e-47
5.21373e-47
5.18062e-48
5.81043e-48
1.15572e-48
5.55037e-49
5.2351e-48
-5.60828e-49
4.22949e-47
-5.86592e-48
3.23983e-46
-5.26918e-47
2.1702e-45
-4.32876e-46
1.33615e-44
-3.35173e-45
6.32783e-44
-2.25217e-44
2.62323e-43
-1.40314e-43
4.31526e-43
-6.47187e-43
3.10975e-43
-2.62894e-42
1.79681e-43
-2.1026e-42
3.07833e-43
2.10149e-42
4.01623e-43
2.61811e-42
-6.279e-45
5.3633e-43
-2.14462e-42
-9.25965e-43
-1.71538e-41
-9.83841e-42
-1.15771e-40
-8.38021e-41
-7.29334e-40
-6.87476e-40
-3.39244e-39
-4.93223e-39
-1.40997e-38
-3.41361e-38
-1.11609e-38
-1.71945e-37
1.23878e-38
-7.74485e-37
-1.33213e-37
-2.48135e-41
-4.64829e-39
1.20284e-40
-1.92193e-39
5.44308e-41
-1.37117e-39
2.52958e-41
-3.00769e-40
5.66515e-42
-5.96779e-41
1.26039e-42
-8.44636e-42
2.63558e-43
-1.56154e-42
6.43962e-44
-6.72721e-43
-1.31668e-44
-6.08604e-43
-9.87498e-44
-6.59498e-43
-1.12496e-44
3.81912e-43
1.5347e-43
9.55955e-43
9.06048e-44
-2.22302e-43
-5.33188e-44
-6.08083e-43
-2.54009e-44
2.4905e-43
4.63862e-44
3.90212e-43
3.56209e-44
1.0007e-43
9.09694e-45
2.25457e-44
1.99765e-45
3.72321e-45
3.33291e-46
5.67523e-46
5.08113e-47
7.47223e-47
6.746e-48
9.23959e-48
8.46794e-49
1.04212e-48
1.90839e-49
1.00437e-49
8.55857e-49
-1.01502e-49
6.83055e-48
-1.05224e-48
5.15507e-47
-9.33993e-48
3.39178e-46
-7.56517e-47
2.04152e-45
-5.75698e-46
9.37765e-45
-3.78848e-45
3.72706e-44
-2.30366e-44
5.33712e-44
-1.03209e-43
3.17997e-46
-4.08908e-43
-4.80001e-44
-3.25714e-43
-1.3981e-44
3.2227e-43
-8.42998e-44
3.74893e-43
-1.21729e-42
-2.49251e-43
-1.04835e-41
-3.42196e-42
-8.33804e-41
-3.2567e-41
-5.7758e-40
-2.85545e-40
-3.75734e-39
-2.45188e-39
-1.81776e-38
-1.88098e-38
-7.83524e-38
-1.41126e-37
-6.32756e-38
-7.88984e-37
6.57222e-38
-3.72849e-36
-6.46098e-37
2.92389e-40
-2.38988e-38
9.86649e-40
-9.87487e-39
3.80187e-40
-7.19369e-39
1.5863e-40
-1.51105e-39
3.36905e-41
-2.91909e-40
6.62423e-42
-4.26905e-41
1.03358e-42
-5.98762e-42
1.52178e-43
-8.01394e-43
1.27683e-44
-1.71131e-43
-1.88546e-44
-1.04509e-43
-6.31414e-45
5.45131e-44
2.18811e-44
1.38372e-43
1.18692e-44
-3.185e-44
-1.16997e-44
-8.78634e-44
-6.49654e-45
3.59257e-44
5.77048e-45
5.67112e-44
4.88503e-45
1.48693e-44
1.28501e-45
3.43052e-45
2.88734e-46
5.78119e-46
4.90382e-47
8.96433e-47
7.58547e-48
1.19759e-47
1.0195e-48
1.4985e-48
1.29288e-49
1.70741e-49
2.93862e-50
1.65801e-50
1.30692e-49
-1.67584e-50
1.0325e-48
-1.72426e-49
7.69806e-48
-1.51507e-48
4.99245e-47
-1.21282e-47
2.95244e-46
-9.09694e-47
1.32587e-45
-5.88588e-46
5.11859e-45
-3.50823e-45
6.70404e-45
-1.53596e-44
-3.5274e-45
-5.9599e-44
-1.7084e-44
-4.78847e-44
-6.14561e-44
3.92005e-44
-5.5901e-43
-2.73444e-44
-5.24429e-42
-9.00811e-43
-4.48474e-41
-9.13936e-42
-3.66321e-40
-8.92825e-41
-2.62128e-39
-8.20373e-40
-1.77788e-38
-7.60073e-39
-9.02089e-38
-6.48418e-38
-4.12091e-37
-5.53511e-37
-3.39863e-37
-3.57759e-36
3.30929e-37
-1.8834e-35
-3.11692e-36
5.87052e-39
-1.18654e-37
8.11226e-39
-4.26509e-38
2.55259e-39
-3.00501e-38
9.02223e-40
-6.02648e-39
1.79118e-40
-1.11071e-39
3.34941e-41
-1.56913e-40
5.00892e-42
-2.11703e-41
7.05857e-43
-2.53618e-42
8.69101e-44
-3.02658e-43
7.17392e-45
-4.54075e-44
-2.85029e-47
5.45209e-45
3.0268e-45
2.10831e-44
1.53352e-45
-4.90215e-45
-1.79265e-45
-1.35455e-44
-1.03435e-45
5.53081e-45
7.18354e-46
8.78135e-45
6.41487e-46
2.34174e-45
1.72414e-46
5.50124e-46
3.94223e-47
9.41585e-47
6.79372e-48
1.4794e-47
1.06356e-48
1.99891e-48
1.44443e-49
2.52443e-49
1.84783e-50
2.89947e-50
4.23101e-51
2.83234e-51
1.86793e-50
-2.86315e-51
1.46282e-49
-2.92845e-50
1.0792e-48
-2.55277e-49
6.91335e-48
-2.02479e-48
4.02582e-47
-1.50178e-47
1.77114e-46
-9.59123e-47
6.61728e-46
-5.63042e-46
7.07513e-46
-2.42293e-45
-2.18264e-45
-9.26223e-45
-1.91254e-44
-7.63938e-45
-1.8109e-43
3.25295e-45
-1.77405e-42
-3.59791e-44
-1.67945e-41
-4.96606e-43
-1.46972e-40
-5.38342e-42
-1.23691e-39
-6.08667e-41
-9.18672e-39
-7.15644e-40
-6.51559e-38
-9.20279e-39
-3.49604e-37
-1.145e-37
-1.69362e-36
-1.30917e-36
-1.42124e-36
-1.13059e-35
1.23836e-36
-6.33772e-35
-1.08842e-35
-3.21224e-39
-8.15262e-41
-1.73012e-38
-4.64906e-40
-2.54885e-38
-3.25406e-39
-5.29088e-37
-2.45925e-39
2.9832e-45
6.26952e-39
5.29088e-37
6.26952e-39
2.54888e-38
-2.45925e-39
1.73057e-38
-3.25397e-39
3.22851e-39
-4.64497e-40
3.87532e-40
-8.04163e-41
5.30198e-41
-9.9605e-42
5.28774e-42
-1.2911e-42
-5.28849e-42
-2.80302e-43
-5.30271e-41
-1.29124e-42
-3.87604e-40
-9.96202e-42
-3.2292e-39
-8.04316e-41
-1.73117e-38
-4.64639e-40
-2.55426e-38
-3.25526e-39
-5.29482e-37
-2.46935e-39
-3.2823e-39
6.18781e-39
5.11389e-37
5.79492e-39
-3.2823e-39
-5.79492e-39
-5.29482e-37
-6.18781e-39
-2.55426e-38
2.46935e-39
-1.73117e-38
3.25526e-39
-3.22928e-39
4.64637e-40
-3.88307e-40
8.04162e-41
-5.91392e-41
9.81901e-42
-5.96927e-41
-1.36758e-44
-3.93581e-40
-9.94517e-42
-3.27632e-39
-8.15506e-41
-1.76455e-38
-4.73305e-40
-2.83775e-38
-3.32557e-39
-5.43505e-37
-2.85214e-39
-1.10719e-38
3.40844e-39
1.10712e-38
6.67133e-39
5.435e-37
3.40832e-39
2.83237e-38
-2.85344e-39
1.73586e-38
-3.33381e-39
-5.04446e-40
-1.11322e-39
9.49334e-41
-5.76562e-39
7.36787e-40
-3.44959e-38
4.84594e-39
-5.55262e-38
3.56618e-39
1.77571e-45
-9.2811e-39
5.55262e-38
-9.2811e-39
3.44961e-38
3.56617e-39
5.7678e-39
4.84591e-39
1.12384e-39
7.3766e-40
1.54727e-40
1.16036e-40
2.19735e-41
1.35541e-41
2.32698e-42
1.60687e-42
-2.32735e-42
3.27987e-43
-2.1977e-41
1.60701e-42
-1.54761e-40
1.35557e-41
-1.12415e-39
1.16053e-40
-5.77048e-39
7.37826e-40
-3.45184e-38
4.84751e-39
-5.56836e-38
3.57989e-39
-1.14616e-39
-9.16346e-39
4.9601e-38
-8.52972e-39
-1.14616e-39
8.52972e-39
-5.56836e-38
9.16346e-39
-3.45184e-38
-3.57989e-39
-5.77048e-39
-4.84751e-39
-1.12419e-39
-7.37824e-40
-1.5508e-40
-1.16036e-40
-2.46805e-41
-1.33887e-41
-2.49297e-41
1.51187e-44
-1.57401e-40
1.35373e-41
-1.14352e-39
1.1746e-40
-5.90289e-39
7.4977e-40
-3.54848e-38
4.94983e-39
-6.03052e-38
4.19991e-39
-2.9717e-38
-5.06893e-39
2.97167e-38
-9.92708e-39
6.03027e-38
-5.06881e-39
3.54609e-38
4.20063e-39
5.7693e-39
4.94392e-39
5.59562e-40
-2.84601e-40
3.6565e-41
-1.16922e-39
2.67694e-40
-5.39301e-39
1.45864e-39
-8.2339e-39
9.97424e-40
3.03083e-46
-2.7756e-39
8.23391e-39
-2.7756e-39
5.39304e-39
9.97421e-40
1.16961e-39
1.45863e-39
2.85955e-40
2.68036e-40
4.47563e-41
4.50532e-41
7.011e-42
5.68519e-42
7.87783e-43
7.03624e-43
-7.87928e-43
1.50084e-43
-7.01235e-42
7.03696e-43
-4.47689e-41
5.68596e-42
-2.86069e-40
4.50611e-41
-1.17053e-39
2.68112e-40
-5.40017e-39
1.45933e-39
-8.27958e-39
1.00318e-39
-2.93092e-40
-2.72984e-39
7.01862e-39
-2.5018e-39
-2.93092e-40
2.5018e-39
-8.27958e-39
2.72984e-39
-5.40017e-39
-1.00318e-39
-1.17053e-39
-1.45933e-39
-2.86081e-40
-2.68111e-40
-4.48837e-41
-4.50531e-41
-7.93601e-42
-5.60946e-42
-8.02453e-42
7.10315e-45
-4.56689e-41
5.67725e-42
-2.92192e-40
4.56731e-41
-1.20815e-39
2.73092e-40
-5.64046e-39
1.49862e-39
-9.1561e-39
1.22546e-39
-4.47085e-39
-1.54501e-39
4.47078e-39
-3.00876e-39
9.15564e-39
-1.54496e-39
5.63641e-39
1.22576e-39
1.18511e-39
1.49646e-39
2.02879e-40
-5.29887e-41
1.10542e-41
-1.7499e-40
7.59942e-41
-6.4605e-40
3.85216e-40
-9.40626e-40
2.55517e-40
1.77627e-47
-7.32683e-40
9.40626e-40
-7.32683e-40
6.4605e-40
2.55517e-40
1.75025e-40
3.85216e-40
5.29898e-41
7.61343e-41
9.30532e-42
1.37232e-41
1.57506e-42
1.82888e-42
1.86056e-43
2.37245e-43
-1.86095e-43
5.24557e-44
-1.57541e-42
2.37272e-43
-9.30853e-42
1.82916e-42
-5.30178e-41
1.3726e-41
-1.75241e-40
7.61608e-41
-6.47656e-40
3.85454e-40
-9.50149e-40
2.57372e-40
-5.45961e-41
-7.18722e-40
7.56079e-40
-6.54693e-40
-5.45961e-41
6.54693e-40
-9.50149e-40
7.18722e-40
-6.47656e-40
-2.57372e-40
-1.75242e-40
-3.85454e-40
-5.30211e-41
-7.61605e-41
-9.33689e-42
-1.37231e-41
-1.7952e-42
-1.8024e-42
-1.81687e-42
2.55048e-45
-9.52229e-42
1.82602e-42
-5.43823e-41
1.39311e-41
-1.82941e-40
7.77519e-41
-6.91123e-40
3.97322e-40
-1.07058e-39
3.19546e-40
-5.161e-40
-4.11495e-40
5.1609e-40
-7.98352e-40
1.07054e-39
-4.11485e-40
6.90793e-40
3.19587e-40
1.80633e-40
3.96411e-40
5.69986e-41
-9.02346e-42
2.45668e-42
-2.26422e-41
1.61659e-41
-5.95086e-41
7.692e-41
-7.98428e-41
4.95263e-41
-1.10324e-47
-1.4623e-40
7.98427e-41
-1.4623e-40
5.95071e-41
4.95264e-41
2.26368e-41
7.69213e-41
8.95269e-42
1.62069e-41
1.74064e-42
3.08054e-42
3.1668e-43
4.30007e-43
3.89782e-44
5.78569e-44
-3.89872e-44
1.3179e-44
-3.1676e-43
5.78641e-44
-1.74136e-42
4.30081e-43
-8.95881e-42
3.08128e-42
-2.26826e-41
1.62136e-41
-5.98306e-41
7.69792e-41
-8.16292e-41
4.9963e-41
-9.27621e-42
-1.43091e-40
5.54194e-41
-1.29586e-40
-9.27621e-42
1.29586e-40
-8.16292e-41
1.43091e-40
-5.98306e-41
-4.9963e-41
-2.26827e-41
-7.69792e-41
-8.95953e-42
-1.62135e-41
-1.74755e-42
-3.08053e-42
-3.63125e-43
-4.23351e-43
-3.67818e-43
6.54374e-46
-1.78637e-42
4.29271e-43
-9.23118e-42
3.131e-42
-2.40999e-41
1.65856e-41
-6.69969e-41
7.96231e-41
-9.49898e-41
6.30315e-41
-4.43601e-41
-8.28134e-41
4.43599e-41
-1.60119e-40
9.49955e-41
-8.28121e-41
6.70466e-41
6.30304e-41
2.41906e-41
7.93641e-41
1.19636e-41
-1.40049e-42
4.81717e-43
-2.69284e-42
3.0716e-42
-3.95918e-42
1.41199e-41
-4.1934e-42
8.92354e-42
-7.2644e-49
-2.68655e-41
4.19338e-42
-2.68655e-41
3.95881e-42
8.924e-42
2.69028e-42
1.41232e-41
1.37882e-42
3.09823e-42
2.91112e-43
6.16824e-43
5.59891e-44
8.93236e-44
7.12294e-45
1.24072e-44
-7.12473e-45
2.89621e-45
-5.60048e-44
1.24089e-44
-2.9125e-43
8.93406e-44
-1.37998e-42
6.16989e-43
-2.69868e-42
3.0997e-42
-4.01609e-42
1.41356e-41
-4.49291e-42
9.01478e-42
-1.43611e-42
-2.62362e-41
1.20357e-42
-2.36765e-41
-1.43611e-42
2.36765e-41
-4.49291e-42
2.62362e-41
-4.01609e-42
-9.01478e-42
-2.6987e-42
-1.41356e-41
-1.38012e-42
-3.09968e-42
-2.9242e-43
-6.16822e-43
-6.4527e-44
-8.78604e-44
-6.54071e-44
1.4644e-46
-2.99513e-43
8.91585e-44
-1.42784e-42
6.27603e-43
-2.93254e-42
3.17658e-42
-5.09539e-42
1.46617e-41
-5.74709e-42
1.14838e-41
-2.40509e-42
-1.5302e-41
2.40534e-42
-2.95049e-41
5.7501e-42
-1.5302e-41
5.1192e-42
1.14811e-41
3.01588e-42
1.45978e-41
2.25392e-42
-2.01159e-43
1.09173e-43
-3.17954e-43
3.92284e-43
-8.66505e-44
2.30239e-42
1.44429e-43
1.44043e-42
2.95952e-47
-4.42333e-42
-1.44231e-43
-4.42305e-42
8.77871e-44
1.44336e-42
3.19342e-43
2.32386e-42
2.05297e-43
5.27836e-43
4.60137e-44
1.09074e-43
9.23218e-45
1.62893e-44
1.20447e-45
2.32221e-45
-1.20479e-45
5.53372e-46
-9.235e-45
2.32254e-45
-4.60382e-44
1.62927e-44
-2.05498e-43
1.09106e-43
-3.20769e-43
5.28116e-43
-9.72437e-44
2.32619e-42
9.67913e-44
1.45992e-42
-2.14754e-43
-4.31162e-42
-5.1102e-43
-3.87862e-42
-2.14754e-43
3.87862e-42
9.67913e-44
4.31162e-42
-9.7244e-44
-1.45992e-42
-3.20772e-43
-2.32619e-42
-2.05522e-43
-5.28113e-43
-4.62413e-44
-1.09074e-43
-1.06831e-44
-1.60097e-44
-1.0835e-44
2.8405e-47
-4.74405e-44
1.62572e-44
-2.13352e-43
1.11085e-43
-3.57331e-43
5.42076e-43
-2.55098e-43
2.41869e-42
-7.79624e-45
1.87636e-42
6.42511e-44
-2.53216e-42
-6.4168e-44
-4.87052e-42
8.57419e-45
-2.53221e-42
2.60933e-43
1.87551e-42
3.79256e-43
2.40554e-42
3.7893e-43
1.39565e-43
-8.59331e-43
-4.91119e-45
-8.24867e-43
3.81929e-44
2.26798e-43
8.16871e-44
2.05114e-43
2.22768e-46
-6.88854e-43
-8.0022e-44
-6.87405e-43
-2.69718e-44
2.21204e-43
3.86185e-44
3.60819e-43
2.91722e-44
8.4111e-44
6.82162e-45
1.79188e-44
1.4116e-45
2.74249e-45
1.87846e-46
3.99434e-46
-1.879e-46
9.67994e-47
-1.41206e-45
3.99494e-46
-6.82557e-45
2.7431e-45
-2.92041e-44
1.79245e-44
-3.88416e-44
8.41601e-44
2.55269e-44
3.61219e-43
7.30011e-44
2.24008e-43
-3.06197e-44
-6.68939e-43
-1.2571e-43
-6.00355e-43
-3.06197e-44
6.00355e-43
7.30011e-44
6.68939e-43
2.55268e-44
-2.24008e-43
-3.8842e-44
-3.61219e-43
-2.92081e-44
-8.41595e-44
-6.85793e-45
-1.79188e-44
-1.63881e-45
-2.69356e-45
-1.6629e-45
5.03168e-48
-7.04492e-45
2.7368e-45
-3.04003e-44
1.82636e-44
-4.42166e-44
8.65019e-44
3.39999e-45
3.76347e-43
6.50027e-44
2.89801e-43
4.20199e-44
-3.95021e-43
-4.20017e-44
-7.58277e-43
-6.485e-44
-3.95037e-43
-2.3005e-45
2.896e-43
4.84112e-44
3.73907e-43
5.9664e-44
2.93474e-42
9.09572e-42
3.93276e-43
-5.47829e-42
1.047e-43
-7.26705e-43
2.76293e-44
-4.85474e-44
1.52806e-45
-1.07384e-43
-1.49468e-44
-1.00621e-43
-6.45204e-45
3.17382e-44
4.80539e-45
5.24586e-44
4.00791e-45
1.25057e-44
9.64749e-46
2.72971e-45
2.04249e-46
4.26341e-46
2.76002e-47
6.31847e-47
-2.76085e-47
1.55292e-47
-2.04319e-46
6.31948e-47
-9.65337e-46
4.26442e-46
-4.01257e-45
2.73066e-45
-4.83693e-45
1.25139e-44
6.25769e-45
5.2526e-44
1.4106e-44
3.22246e-44
-4.21741e-45
-9.71933e-44
-2.09054e-44
-8.70461e-44
-4.21741e-45
8.70461e-44
1.4106e-44
9.71933e-44
6.25768e-45
-3.22246e-44
-4.837e-45
-5.25259e-44
-4.01317e-45
-1.25138e-44
-9.70175e-46
-2.72973e-45
-2.37744e-46
-4.18491e-46
-2.41331e-46
8.15668e-49
-9.97644e-46
4.25419e-46
-4.1851e-45
2.78414e-45
-5.59219e-45
1.28768e-44
3.2476e-45
5.48216e-44
1.35194e-44
4.19376e-44
8.05193e-45
-5.76707e-44
-8.0486e-45
-1.10512e-43
-1.34933e-44
-5.76742e-44
-3.06603e-45
4.1899e-44
6.28747e-45
5.44136e-44
8.7813e-45
4.38289e-41
-7.84387e-41
5.5401e-42
-9.13092e-42
7.61948e-43
-9.27458e-43
8.31948e-44
-8.16129e-44
8.40724e-45
-2.3247e-44
-1.43813e-45
-1.61533e-44
-9.46631e-46
4.82479e-45
6.0391e-46
8.12189e-45
5.27313e-46
1.97022e-45
1.29586e-46
4.38116e-46
2.79114e-47
6.94996e-47
3.81924e-48
1.04391e-47
-3.8202e-48
2.59388e-48
-2.79185e-47
1.04409e-47
-1.29631e-46
6.95181e-47
-5.27487e-46
4.38297e-46
-6.02396e-46
1.97186e-45
9.89353e-46
8.13663e-45
2.09471e-45
4.94993e-45
-5.5548e-46
-1.50467e-44
-2.96078e-45
-1.34539e-44
-5.5548e-46
1.34539e-44
2.09471e-45
1.50467e-44
9.89352e-46
-4.94993e-45
-6.02406e-46
-8.13663e-45
-5.27572e-46
-1.97184e-45
-1.30311e-46
-4.38139e-46
-3.25564e-47
-6.81896e-47
-3.30581e-47
1.37355e-49
-1.34111e-46
6.93455e-47
-5.50999e-46
4.47112e-46
-7.033e-46
2.03089e-45
5.96656e-46
8.50397e-45
2.05236e-45
6.47189e-45
1.19454e-45
-8.96182e-45
-1.194e-45
-1.71496e-44
-2.04837e-45
-8.96254e-45
-5.69664e-46
6.46459e-45
8.06315e-46
8.43368e-45
1.37239e-45
1.14376e-37
-7.36849e-37
1.08219e-37
-2.82413e-37
2.87076e-38
-2.0635e-37
8.59083e-39
-3.64244e-38
1.56093e-39
-6.36119e-39
2.75314e-40
-8.50214e-40
3.94389e-41
-1.11026e-40
5.39128e-42
-1.28412e-41
6.55741e-43
-1.44152e-42
7.56647e-44
-1.50915e-43
7.99655e-45
-1.43422e-44
1.23418e-45
3.03024e-46
2.84013e-46
-5.21767e-46
-2.5132e-46
-1.1048e-45
-1.51144e-46
4.45599e-46
9.39807e-47
7.12099e-46
8.6511e-47
1.93218e-46
2.36015e-47
4.64848e-47
5.46343e-48
8.10923e-48
9.51514e-49
1.29765e-48
1.50249e-49
1.78053e-49
2.05596e-50
2.27976e-50
2.64643e-51
2.64965e-51
6.08505e-52
2.61284e-52
2.66635e-51
-2.64019e-52
2.06932e-50
-2.67439e-51
1.50666e-49
-2.30264e-50
9.43936e-49
-1.79951e-49
5.25856e-48
-1.31143e-48
2.01593e-47
-8.17937e-48
3.88029e-47
-4.64987e-47
-5.06621e-46
-1.86132e-46
-7.18772e-45
-5.81141e-46
-7.81293e-44
1.39265e-45
-8.26433e-43
2.30567e-44
-8.29228e-42
2.42498e-43
-8.05556e-41
2.47217e-42
-7.25452e-40
2.27413e-41
-6.35347e-39
1.74785e-40
-4.92455e-38
5.92398e-40
-3.73624e-37
-1.25638e-38
-2.14633e-36
-3.86456e-37
-1.21047e-35
-6.29907e-36
-1.02263e-35
-7.43175e-35
1.03642e-35
-4.19955e-35
-7.44952e-35
1.17387e-35
1.74236e-36
-1.01211e-36
1.32775e-36
-8.69398e-37
2.67261e-37
-2.34837e-37
6.00485e-38
-3.47033e-38
9.52818e-39
-5.52949e-39
1.51342e-39
-7.12135e-40
2.03332e-40
-9.155e-41
2.6474e-41
-1.05025e-41
3.11264e-42
-1.17386e-42
3.51757e-43
-1.21744e-43
3.70015e-44
-1.21359e-44
3.77236e-45
-1.00988e-45
3.73282e-46
-1.38469e-46
1.33711e-47
-1.011e-46
-8.70003e-48
3.66781e-47
7.14547e-48
5.99571e-47
6.46832e-48
1.64652e-47
1.78579e-48
3.99758e-48
4.19292e-49
7.03503e-49
7.39359e-50
1.1329e-49
1.18097e-50
1.56354e-50
1.63224e-51
2.01024e-51
2.12026e-52
2.34501e-52
4.9502e-53
2.31848e-53
2.19206e-52
-2.33203e-53
1.72209e-51
-2.35181e-52
1.2932e-50
-2.00836e-51
8.78851e-50
-1.54882e-50
5.91969e-49
-1.10143e-49
3.88675e-48
-6.51069e-49
3.15843e-47
-3.23394e-48
2.98236e-46
-6.19436e-48
3.26821e-45
6.95235e-47
3.53587e-44
1.51234e-45
3.67978e-43
1.7799e-44
3.62345e-42
1.91864e-43
3.4279e-41
1.97483e-42
3.01501e-40
1.84246e-41
2.54376e-39
1.47114e-40
1.91392e-38
6.33658e-40
1.37068e-37
-7.1433e-39
7.61021e-37
-2.65869e-37
3.83119e-36
-4.53777e-36
4.27455e-36
-5.57014e-35
-8.15842e-37
-2.23614e-33
-5.59031e-35
-2.26293e-36
3.61648e-35
-1.81449e-35
2.22987e-36
-1.10962e-36
1.71311e-36
5.33234e-38
3.63018e-37
2.21074e-38
5.23719e-38
4.89796e-39
8.02855e-39
6.94316e-40
1.03266e-39
9.25417e-41
1.31332e-40
1.07294e-41
1.50599e-41
1.20171e-42
1.67423e-42
1.24461e-43
1.73294e-43
1.24648e-44
1.7314e-44
1.19007e-45
1.63883e-45
1.05326e-46
1.48073e-46
2.40313e-48
1.21772e-47
3.65889e-48
1.62554e-48
4.6682e-48
5.80909e-49
1.28322e-48
1.44187e-49
3.14497e-49
3.29912e-50
5.59031e-50
5.8034e-51
9.08608e-51
9.28661e-52
1.26443e-51
1.28816e-52
1.63729e-52
1.69048e-53
1.92196e-53
5.68534e-54
1.90002e-54
4.29631e-53
-2.06564e-54
4.99853e-52
-2.14453e-53
6.05244e-51
-1.9523e-52
7.45344e-50
-1.70205e-51
9.29032e-49
-1.50486e-50
1.14495e-47
-1.35133e-49
1.38857e-46
-1.34176e-48
1.63062e-45
-1.41938e-47
1.85695e-44
-1.62293e-46
2.02418e-43
-1.85612e-45
2.12917e-42
-2.10444e-44
2.12107e-41
-2.27083e-43
2.03762e-40
-2.32483e-42
1.82041e-39
-2.12647e-41
1.57129e-38
-1.58507e-40
1.20924e-37
-3.76897e-40
9.00584e-37
1.59416e-38
5.192e-36
4.40957e-37
2.86424e-35
7.09628e-36
2.5383e-35
8.41256e-35
1.68789e-35
2.52202e-33
8.42802e-35
-2.3743e-35
1.89202e-36
-7.58576e-37
1.13912e-36
-5.57513e-37
2.34124e-37
1.23385e-37
5.37155e-38
3.01436e-38
8.68733e-39
5.96316e-39
1.4011e-39
8.27691e-40
1.90387e-40
1.0972e-40
2.50084e-41
1.27536e-41
2.96044e-42
1.43322e-42
3.3643e-43
1.49051e-43
3.55563e-44
1.49724e-44
3.60898e-45
1.42206e-45
3.46579e-46
1.30132e-46
3.19216e-47
1.08838e-47
2.76567e-48
1.18653e-48
2.78703e-49
4.31453e-49
5.51525e-50
1.04946e-49
1.15303e-50
2.4889e-50
2.49656e-51
4.40593e-51
4.34119e-52
7.16523e-52
6.93746e-53
1.00002e-52
9.64866e-54
1.2983e-53
1.2719e-54
1.52775e-54
4.47278e-55
1.44198e-55
3.47714e-54
-2.74489e-55
4.06419e-53
-3.35024e-54
4.91121e-52
-3.94928e-53
6.00508e-51
-4.75751e-52
7.38622e-50
-5.90533e-51
8.95727e-49
-7.39912e-50
1.06414e-47
-9.31945e-49
1.2229e-46
-1.15433e-47
1.35581e-45
-1.40281e-46
1.43848e-44
-1.64591e-45
1.46038e-43
-1.86827e-44
1.40509e-42
-2.01167e-43
1.28375e-41
-2.04597e-42
1.09429e-40
-1.8345e-41
8.73386e-40
-1.26738e-40
6.28524e-39
-2.00791e-41
4.05296e-38
2.02703e-38
2.11766e-37
4.90661e-37
7.84625e-37
7.59143e-36
1.69271e-36
8.71299e-35
1.76966e-36
6.42803e-35
8.73231e-35
7.60511e-37
2.06416e-37
-5.82679e-37
-6.31582e-39
-9.10717e-38
7.92496e-39
1.41771e-38
4.56563e-39
4.67447e-39
1.01905e-39
1.01174e-39
2.02406e-40
1.50734e-40
3.09767e-41
2.08279e-41
4.42946e-42
2.5137e-42
5.5566e-43
2.90018e-43
6.59945e-44
3.0892e-44
7.2098e-45
3.1604e-45
7.51271e-46
3.05086e-46
7.36561e-47
2.83346e-47
6.91709e-48
2.47611e-48
6.15812e-49
2.31079e-49
5.61775e-50
4.31435e-50
6.94896e-51
8.5902e-51
1.06782e-51
1.89743e-51
1.9829e-52
3.30662e-52
3.27746e-53
5.3594e-53
5.13307e-54
7.49317e-54
7.06317e-55
9.75512e-55
4.60737e-56
1.15762e-55
-6.77275e-55
2.04389e-56
-1.01582e-53
1.25874e-55
-1.45671e-52
1.94424e-54
-2.03061e-51
2.9134e-53
-2.74523e-50
4.20839e-52
-3.60527e-49
5.87883e-51
-4.5789e-48
7.93927e-50
-5.64097e-47
1.0392e-48
-6.69016e-46
1.31343e-47
-7.68396e-45
1.60876e-46
-8.43786e-44
1.89496e-45
-8.96411e-43
2.16181e-44
-9.00588e-42
2.35777e-43
-8.76202e-41
2.49862e-42
-7.9031e-40
2.52697e-41
-6.93652e-39
2.54316e-40
-5.38765e-38
2.49825e-39
-4.10005e-37
2.58321e-38
-2.36115e-36
2.60068e-37
-1.33741e-35
2.58386e-36
-1.13003e-35
2.00271e-35
1.15399e-35
1.09554e-34
2.00471e-35
1.33239e-35
1.78755e-38
-1.09324e-37
-8.94208e-39
-1.77358e-38
-9.74807e-40
8.1708e-40
2.15635e-40
5.52396e-40
8.5323e-41
1.45298e-40
2.11097e-41
2.38637e-41
3.5961e-42
3.55105e-42
5.499e-43
4.51724e-43
7.22684e-44
5.4316e-44
8.87548e-45
5.97053e-45
9.95533e-46
6.26333e-46
1.05877e-46
6.1675e-47
1.05585e-47
5.82466e-48
1.00602e-48
5.21e-49
9.09441e-50
4.64699e-50
8.13287e-51
5.57193e-51
8.35738e-52
8.15243e-52
1.02414e-52
1.51769e-52
1.59237e-53
2.50133e-53
2.43783e-54
3.96304e-54
3.68891e-55
5.50087e-55
5.14546e-56
7.14926e-56
2.41723e-56
9.53353e-57
2.64949e-55
1.81451e-56
3.84023e-54
2.65048e-55
5.43203e-53
3.97665e-54
7.47705e-52
5.8185e-53
9.98419e-51
8.28215e-52
1.29408e-49
1.14758e-50
1.62077e-48
1.54285e-49
1.96498e-47
2.01564e-48
2.28999e-46
2.54592e-47
2.57567e-45
3.11902e-46
2.76379e-44
3.67618e-45
2.85342e-43
4.19715e-44
2.77739e-42
4.58154e-43
2.59385e-41
4.85682e-42
2.2359e-40
4.90682e-41
1.84454e-39
4.91446e-40
1.3391e-38
4.76903e-39
9.21874e-38
4.82894e-38
4.78768e-37
4.72133e-37
2.22567e-36
4.57823e-36
1.83154e-36
3.46053e-35
-1.81721e-36
1.88842e-34
3.45568e-35
-2.19544e-36
2.03216e-39
-1.29105e-38
-1.95542e-39
-2.37216e-39
-3.18421e-40
-3.95557e-41
-1.64775e-41
4.55771e-41
4.54048e-42
1.52259e-41
1.8778e-42
2.75973e-42
3.75358e-43
4.38104e-43
6.28696e-44
5.83728e-44
8.74414e-45
7.26315e-45
1.11857e-45
8.20303e-46
1.293e-46
8.78857e-47
1.40776e-47
8.80684e-48
1.43023e-48
8.43726e-49
1.38382e-49
7.66013e-50
1.26851e-50
6.79345e-51
1.13081e-51
6.85657e-52
1.05732e-52
8.0609e-53
1.09344e-53
1.23673e-53
1.38979e-54
1.87337e-54
1.88671e-55
2.85339e-55
2.7233e-56
3.90201e-56
1.17485e-56
5.04495e-57
1.26674e-55
7.65199e-58
1.89213e-54
2.77209e-57
2.76602e-53
4.17841e-56
3.93534e-52
6.29026e-55
5.45066e-51
9.23919e-54
7.32711e-50
1.32081e-52
9.56919e-49
1.83926e-51
1.20859e-47
2.48623e-50
1.47975e-46
3.26866e-49
1.7436e-45
4.15826e-48
1.9873e-44
5.14348e-47
2.16459e-43
6.15202e-46
2.27672e-42
7.23838e-45
2.26336e-41
8.47453e-44
2.17241e-40
1.05927e-42
1.93214e-39
1.49882e-41
1.66339e-38
2.52259e-40
1.26746e-37
4.60456e-39
9.36553e-37
8.26194e-38
5.2522e-36
1.31706e-36
2.81598e-35
1.75798e-35
2.37357e-35
1.81861e-34
-2.3716e-35
3.74642e-34
1.8151e-34
-2.78163e-35
2.08082e-40
-1.74578e-39
-2.3841e-40
-3.32463e-40
-4.43724e-41
-2.59603e-41
-4.66481e-42
1.90859e-42
1.49854e-44
1.34134e-42
1.34994e-43
2.84063e-43
3.30481e-44
4.92979e-44
6.07709e-45
6.94308e-45
8.92472e-46
8.99592e-46
1.18498e-46
1.04684e-46
1.40795e-47
1.14805e-47
1.56552e-48
1.1719e-48
1.61767e-49
1.13973e-49
1.5869e-50
1.04885e-50
1.47235e-51