/*--------------------------------*- C++ -*----------------------------------*\
| =========                 |                                                 |
| \\      /  F ield         | OpenFOAM: The Open Source CFD Toolbox           |
|  \\    /   O peration     | Version:  2.4.0                                 |
|   \\  /    A nd           | Web:      www.OpenFOAM.org                      |
|    \\/     M anipulation  |                                                 |
\*---------------------------------------------------------------------------*/
FoamFile
{
    version     2.0;
    format      ascii;
    class       volVectorField;
    location    "0.8";
    object      U;
}
// * * * * * * * * * * * * * * * * * * * * * * * * * * * * * * * * * * * * * //

dimensions      [0 1 -1 0 0 0 0];

internalField   nonuniform List<vector> 
7700
(
(1.25505e-35 4.03695e-36 0)
(1.02927e-34 2.5781e-35 0)
(4.95875e-34 1.63516e-34 0)
(4.40924e-33 1.1931e-34 0)
(4.00528e-33 -3.13608e-34 0)
(-4.00283e-33 -3.13046e-34 0)
(-4.39408e-33 1.24319e-34 0)
(-3.79346e-34 1.9382e-34 0)
(4.98092e-34 2.15736e-34 0)
(4.9073e-33 2.92344e-34 0)
(8.53076e-33 -1.62942e-34 0)
(6.14131e-34 -4.32917e-34 0)
(-3.39068e-33 1.19309e-34 0)
(4.12349e-33 2.82813e-34 0)
(4.42458e-33 -1.24392e-34 0)
(4.98092e-34 -1.64164e-34 0)
(1.0338e-34 -2.58692e-35 0)
(1.31916e-35 -4.44892e-36 0)
(1.94453e-36 -5.70499e-37 0)
(2.34332e-37 -7.36928e-38 0)
(2.88695e-38 -8.36702e-39 0)
(3.18341e-39 -9.31391e-40 0)
(3.45881e-40 -9.57089e-41 0)
(3.83049e-41 -8.65491e-42 0)
(3.85675e-41 8.73646e-42 0)
(3.48976e-40 9.65274e-41 0)
(3.21479e-39 9.40038e-40 0)
(2.91796e-38 8.45308e-39 0)
(2.37163e-37 7.45266e-38 0)
(1.97015e-36 5.77915e-37 0)
(1.33964e-35 4.51405e-36 0)
(1.05084e-34 2.63641e-35 0)
(5.09281e-34 1.68026e-34 0)
(4.51429e-33 1.45665e-34 0)
(4.51429e-33 -1.45665e-34 0)
(5.09281e-34 -1.68026e-34 0)
(1.05084e-34 -2.63641e-35 0)
(1.33964e-35 -4.51405e-36 0)
(1.97015e-36 -5.77916e-37 0)
(2.37158e-37 -7.45342e-38 0)
(2.91524e-38 -8.50771e-39 0)
(3.06161e-39 -1.27105e-39 0)
(-2.43727e-40 -1.97108e-39 0)
(-2.11848e-39 -7.33628e-39 0)
(1.50365e-40 -2.75992e-38 0)
(2.71235e-39 -4.80342e-39 0)
(4.82759e-36 -1.82258e-36 0)
(3.52496e-35 -1.37569e-35 0)
(1.63317e-34 -8.71117e-35 0)
(9.23166e-34 -6.3325e-35 0)
(7.90771e-34 1.66737e-34 0)
(-7.8975e-34 1.66464e-34 0)
(-9.17113e-34 -6.58541e-35 0)
(-1.22641e-34 -1.03177e-34 0)
(1.64241e-34 -1.14978e-34 0)
(1.08739e-33 -1.55251e-34 0)
(1.75449e-33 8.68337e-35 0)
(2.04702e-34 2.30062e-34 0)
(-5.85863e-34 -6.33245e-35 0)
(8.32136e-34 -1.50432e-34 0)
(9.29294e-34 6.5888e-35 0)
(1.64241e-34 8.74254e-35 0)
(3.54578e-35 1.38144e-35 0)
(5.23834e-36 2.25655e-36 0)
(8.02377e-37 2.77233e-37 0)
(1.0327e-37 3.39833e-38 0)
(1.30933e-38 3.69199e-39 0)
(1.49725e-39 3.94369e-40 0)
(1.6614e-40 3.91333e-41 0)
(1.88557e-41 3.44045e-42 0)
(1.89887e-41 -3.4712e-42 0)
(1.67683e-40 -3.94499e-41 0)
(1.51265e-39 -3.97806e-40 0)
(1.32419e-38 -3.72731e-39 0)
(1.04598e-37 -3.43378e-38 0)
(8.13939e-37 -2.80523e-37 0)
(5.32819e-36 -2.28676e-36 0)
(3.61539e-35 -1.40569e-35 0)
(1.68651e-34 -8.93973e-35 0)
(9.59306e-34 -7.73776e-35 0)
(9.59306e-34 7.73776e-35 0)
(1.68651e-34 8.93973e-35 0)
(3.61539e-35 1.40569e-35 0)
(5.32819e-36 2.28676e-36 0)
(8.13933e-37 2.80516e-37 0)
(1.04556e-37 3.42832e-38 0)
(1.29875e-38 3.32843e-39 0)
(7.04664e-41 -2.07326e-39 0)
(-5.46103e-39 -1.42417e-38 0)
(-2.06799e-38 -5.74553e-38 0)
(1.30929e-39 -2.19301e-37 0)
(2.51137e-38 -3.82417e-38 0)
(1.42424e-36 -7.46002e-37 0)
(8.73428e-36 -5.28534e-36 0)
(3.13047e-35 -2.6573e-35 0)
(1.37693e-34 -1.75158e-35 0)
(1.13915e-34 5.04314e-35 0)
(-1.13588e-34 5.03084e-35 0)
(-1.35951e-34 -1.85694e-35 0)
(-2.10352e-35 -3.2811e-35 0)
(3.15972e-35 -3.72985e-35 0)
(1.69285e-34 -4.60864e-35 0)
(2.61833e-34 2.64474e-35 0)
(4.17923e-35 6.79469e-35 0)
(-7.20534e-35 -1.75155e-35 0)
(1.24397e-34 -4.40858e-35 0)
(1.39459e-34 1.85853e-35 0)
(3.15971e-35 2.67146e-35 0)
(8.79095e-36 5.30994e-36 0)
(1.48425e-36 9.31087e-37 0)
(2.52579e-37 1.24843e-37 0)
(3.48415e-38 1.59833e-38 0)
(4.66002e-39 1.82328e-39 0)
(5.54407e-40 2.00908e-40 0)
(6.34772e-41 2.05914e-41 0)
(7.39808e-42 1.84922e-42 0)
(7.45192e-42 -1.8665e-42 0)
(6.40926e-41 -2.07658e-41 0)
(5.60422e-40 -2.02756e-40 0)
(4.71659e-39 -1.84181e-39 0)
(3.53311e-38 -1.61632e-38 0)
(2.56672e-37 -1.26462e-37 0)
(1.51431e-36 -9.45205e-37 0)
(9.00757e-36 -5.41839e-36 0)
(3.28195e-35 -2.75172e-35 0)
(1.46695e-34 -2.2932e-35 0)
(1.46695e-34 2.29321e-35 0)
(3.28195e-35 2.75172e-35 0)
(9.00757e-36 5.41839e-36 0)
(1.5143e-36 9.452e-37 0)
(2.5663e-37 1.26415e-37 0)
(3.50291e-38 1.57954e-38 0)
(2.85443e-39 -8.75731e-40 0)
(-1.01342e-38 -1.68541e-38 0)
(-4.22962e-38 -1.00092e-37 0)
(-1.58119e-37 -4.10248e-37 0)
(8.86663e-39 -1.59074e-36 0)
(1.88585e-37 -2.77107e-37 0)
(2.98001e-37 -2.50901e-37 0)
(1.57648e-36 -1.60777e-36 0)
(4.37915e-36 -7.45931e-36 0)
(1.57308e-35 -4.73789e-36 0)
(1.26846e-35 1.41489e-35 0)
(-1.26109e-35 1.41061e-35 0)
(-1.53703e-35 -5.08567e-36 0)
(-2.48997e-36 -9.37563e-36 0)
(4.44411e-36 -1.07215e-35 0)
(2.01734e-35 -1.28531e-35 0)
(3.02932e-35 7.41323e-36 0)
(6.31513e-36 1.88862e-35 0)
(-6.35299e-36 -4.73719e-36 0)
(1.46197e-35 -1.21933e-35 0)
(1.60964e-35 5.09153e-36 0)
(4.44411e-36 7.50681e-36 0)
(1.58699e-36 1.61402e-36 0)
(3.03013e-37 3.05705e-37 0)
(5.61037e-38 4.35553e-38 0)
(8.20791e-39 5.87835e-39 0)
(1.14393e-39 6.99348e-40 0)
(1.40618e-40 7.97771e-41 0)
(1.6498e-41 8.40818e-42 0)
(1.96554e-42 7.71115e-43 0)
(1.98022e-42 -7.78586e-43 0)
(1.66636e-41 -8.48229e-42 0)
(1.42211e-40 -8.05475e-41 0)
(1.15859e-39 -7.06895e-40 0)
(8.33167e-39 -5.94955e-39 0)
(5.71034e-38 -4.41732e-38 0)
(3.10044e-37 -3.10867e-37 0)
(1.6346e-36 -1.65154e-36 0)
(4.68872e-36 -7.76756e-36 0)
(1.73639e-35 -6.38803e-36 0)
(1.73639e-35 6.38803e-36 0)
(4.68872e-36 7.76756e-36 0)
(1.6346e-36 1.65153e-36 0)
(3.10009e-37 3.10834e-37 0)
(5.68236e-38 4.388e-38 0)
(6.27083e-39 3.62299e-39 0)
(-1.17109e-38 -1.6716e-38 0)
(-7.49026e-38 -1.11033e-37 0)
(-3.02713e-37 -6.64815e-37 0)
(-1.14931e-36 -2.78756e-36 0)
(5.4933e-38 -1.10251e-35 0)
(1.34364e-36 -1.9165e-36 0)
(4.36166e-38 -1.14389e-37 0)
(2.6411e-37 -3.72753e-37 0)
(5.07026e-37 -1.52165e-36 0)
(1.32153e-36 -9.24845e-37 0)
(1.03062e-36 2.85107e-36 0)
(-1.01524e-36 2.84158e-36 0)
(-1.25261e-36 -1.00074e-36 0)
(-1.88078e-37 -1.92279e-36 0)
(5.17574e-37 -2.21117e-36 0)
(1.83698e-36 -2.5757e-36 0)
(2.664e-36 1.49345e-36 0)
(8.30241e-37 3.77262e-36 0)
(-1.9651e-37 -9.20612e-37 0)
(1.35568e-36 -2.42433e-36 0)
(1.38791e-36 1.00217e-36 0)
(5.17573e-37 1.51597e-36 0)
(2.60994e-37 3.49266e-37 0)
(5.5661e-38 6.98538e-38 0)
(1.11617e-38 1.04507e-38 0)
(1.71525e-39 1.46476e-39 0)
(2.48027e-40 1.79996e-40 0)
(3.13395e-41 2.10505e-41 0)
(3.75694e-42 2.26637e-42 0)
(4.5602e-43 2.11053e-43 0)
(4.59503e-43 -2.13156e-43 0)
(3.79581e-42 -2.28697e-42 0)
(3.17079e-41 -2.12613e-41 0)
(2.51358e-40 -1.82027e-40 0)
(1.74275e-39 -1.4835e-39 0)
(1.13776e-38 -1.06092e-38 0)
(5.71207e-38 -7.1134e-38 0)
(2.70378e-37 -3.5821e-37 0)
(5.61574e-37 -1.57501e-36 0)
(1.58979e-36 -1.27864e-36 0)
(1.58979e-36 1.27864e-36 0)
(5.61571e-37 1.575e-36 0)
(2.70352e-37 3.58189e-37 0)
(5.68964e-38 7.09432e-38 0)
(9.60251e-39 8.92269e-39 0)
(-1.15062e-38 -1.20737e-38 0)
(-8.37875e-38 -1.02999e-37 0)
(-4.99343e-37 -6.71153e-37 0)
(-2.06086e-36 -4.11146e-36 0)
(-7.99097e-36 -1.77545e-35 0)
(3.06069e-37 -7.17859e-35 0)
(9.1306e-36 -1.24776e-35 0)
(-8.44289e-38 -4.09728e-37 0)
(7.70724e-38 -2.41764e-37 0)
(6.90052e-38 -4.01049e-37 0)
(7.8397e-38 -1.96085e-37 0)
(4.93583e-38 5.26363e-37 0)
(-4.28893e-38 5.29306e-37 0)
(-5.39593e-38 -1.84503e-37 0)
(-2.3966e-39 -3.62764e-37 0)
(5.31169e-38 -4.18375e-37 0)
(1.18314e-37 -4.79421e-37 0)
(1.59441e-37 2.78322e-37 0)
(1.00822e-37 7.00398e-37 0)
(5.52297e-38 -1.67922e-37 0)
(9.61861e-38 -4.48419e-37 0)
(7.66347e-38 1.84673e-37 0)
(5.31144e-38 2.83111e-37 0)
(3.92639e-38 6.79972e-38 0)
(9.17393e-39 1.42597e-38 0)
(1.95694e-39 2.21708e-39 0)
(3.12886e-40 3.21178e-40 0)
(4.65917e-41 4.05329e-41 0)
(6.02373e-42 4.84342e-42 0)
(7.35144e-43 5.30739e-43 0)
(9.0672e-44 5.00728e-44 0)
(9.13781e-44 -5.05835e-44 0)
(7.42946e-43 -5.35685e-43 0)
(6.09678e-42 -4.89344e-42 0)
(4.72423e-41 -4.10075e-41 0)
(3.18158e-40 -3.25479e-40 0)
(1.99734e-39 -2.25266e-39 0)
(9.43875e-39 -1.45393e-38 0)
(4.08959e-38 -6.98834e-38 0)
(6.02378e-38 -2.95073e-37 0)
(1.06095e-37 -2.37765e-37 0)
(1.06094e-37 2.37764e-37 0)
(6.0222e-38 2.95062e-37 0)
(4.07491e-38 6.97772e-38 0)
(8.14342e-39 1.35429e-38 0)
(-8.38534e-39 -6.67617e-39 0)
(-7.8401e-38 -7.2607e-38 0)
(-5.08775e-37 -5.66641e-37 0)
(-3.0918e-36 -3.78198e-36 0)
(-1.31233e-35 -2.39109e-35 0)
(-5.21007e-35 -1.07366e-34 0)
(1.42145e-36 -4.47497e-34 0)
(5.79067e-35 -7.75155e-35 0)
(-5.83989e-37 -2.54289e-36 0)
(3.0344e-37 -1.10576e-36 0)
(1.36959e-37 -8.10489e-37 0)
(8.71988e-38 -2.02734e-37 0)
(1.74768e-38 5.09124e-38 0)
(8.72719e-39 8.1862e-38 0)
(5.94598e-39 -3.10528e-38 0)
(2.45272e-39 -6.07731e-38 0)
(5.22547e-39 -7.01582e-38 0)
(1.77255e-39 -7.92028e-38 0)
(-1.12229e-41 4.60318e-38 0)
(1.22629e-38 1.15433e-37 0)
(1.60465e-38 -2.72219e-38 0)
(3.74659e-39 -7.36545e-38 0)
(-1.63389e-39 3.02263e-38 0)
(5.21035e-39 4.69163e-38 0)
(5.74256e-39 1.16835e-38 0)
(1.43384e-39 2.54427e-39 0)
(3.206e-40 4.08473e-40 0)
(5.28375e-41 6.07701e-41 0)
(8.05596e-42 7.84162e-42 0)
(1.06102e-42 9.53802e-43 0)
(1.31425e-43 1.06095e-43 0)
(1.64268e-44 1.01203e-44 0)
(1.65568e-44 -1.02256e-44 0)
(1.3285e-43 -1.07105e-43 0)
(1.07422e-42 -9.63912e-43 0)
(8.17208e-42 -7.93636e-42 0)
(5.37641e-41 -6.16154e-41 0)
(3.27565e-40 -4.15338e-40 0)
(1.47836e-39 -2.59699e-39 0)
(6.00818e-39 -1.20292e-38 0)
(6.30733e-39 -4.90364e-38 0)
(2.56771e-39 -3.92437e-38 0)
(2.56028e-39 3.92389e-38 0)
(6.2251e-39 4.89891e-38 0)
(5.23698e-39 1.15503e-38 0)
(-5.41618e-39 -1.95413e-39 0)
(-5.579e-38 -4.10022e-38 0)
(-4.3377e-37 -3.44846e-37 0)
(-2.87026e-36 -2.74909e-36 0)
(-1.79445e-35 -1.89777e-35 0)
(-7.88736e-35 -1.2498e-34 0)
(-3.23524e-34 -5.91918e-34 0)
(4.99905e-36 -2.54797e-33 0)
(3.48541e-34 -4.42502e-34 0)
(-3.17751e-36 -1.50665e-35 0)
(2.46935e-36 -6.48397e-36 0)
(9.63494e-37 -4.62118e-36 0)
(5.89929e-37 -1.03973e-36 0)
(1.31999e-37 -2.00469e-37 0)
(2.96809e-38 -1.96008e-38 0)
(6.28995e-39 -9.55411e-39 0)
(1.23185e-39 -1.01839e-38 0)
(6.05983e-40 -1.11541e-38 0)
(-9.81757e-40 -1.23872e-38 0)
(-1.83651e-39 7.19501e-39 0)
(1.51545e-39 1.80062e-38 0)
(2.86449e-39 -4.19321e-39 0)
(-2.78684e-40 -1.14571e-38 0)
(-1.243e-39 4.69347e-39 0)
(5.18077e-40 7.34655e-39 0)
(8.05757e-40 1.87849e-39 0)
(2.10843e-40 4.21854e-40 0)
(4.87788e-41 6.94691e-41 0)
(8.23287e-42 1.05634e-41 0)
(1.27905e-42 1.38791e-42 0)
(1.71072e-43 1.71323e-43 0)
(2.14547e-44 1.92944e-44 0)
(2.71233e-45 1.85747e-45 0)
(2.73409e-45 -1.87713e-45 0)
(2.16916e-44 -1.94815e-44 0)
(1.73249e-43 -1.73179e-43 0)
(1.29798e-42 -1.40512e-42 0)
(8.38197e-42 -1.0715e-41 0)
(4.98817e-41 -7.06817e-41 0)
(2.17751e-40 -4.30992e-40 0)
(8.45932e-40 -1.93706e-39 0)
(6.77252e-40 -7.69628e-39 0)
(-6.68176e-40 -6.13043e-39 0)
(-7.01719e-40 6.11138e-39 0)
(3.02711e-40 7.50971e-39 0)
(-2.70858e-39 2.37087e-41 0)
(-3.20321e-38 -1.80282e-38 0)
(-2.67161e-37 -1.71311e-37 0)
(-2.11247e-36 -1.46361e-36 0)
(-1.43713e-35 -1.20867e-35 0)
(-9.2861e-35 -8.746e-35 0)
(-4.25916e-34 -6.11679e-34 0)
(-1.81022e-33 -3.11867e-33 0)
(4.36848e-36 -1.41654e-32 0)
(1.87131e-33 -2.43224e-33 0)
(-1.26925e-35 -8.52438e-35 0)
(2.10371e-35 -3.49913e-35 0)
(7.12124e-36 -2.49687e-35 0)
(3.72907e-36 -5.45088e-36 0)
(7.9814e-37 -1.08738e-36 0)
(1.63367e-37 -1.62672e-37 0)
(2.5685e-38 -2.41441e-38 0)
(3.81293e-39 -4.33348e-39 0)
(5.30145e-40 -1.97965e-39 0)
(-1.65744e-40 -1.84479e-39 0)
(-3.72354e-40 1.04665e-39 0)
(1.92153e-40 2.62333e-39 0)
(4.32321e-40 -6.04083e-40 0)
(-9.35819e-41 -1.66531e-39 0)
(-2.4032e-40 6.81029e-40 0)
(5.49122e-41 1.07423e-39 0)
(1.09774e-40 2.81029e-40 0)
(2.96419e-41 6.46833e-41 0)
(7.03144e-42 1.08779e-41 0)
(1.20886e-42 1.68376e-42 0)
(1.90661e-43 2.24597e-43 0)
(2.58239e-44 2.80676e-44 0)
(3.27218e-45 3.19455e-45 0)
(4.17638e-46 3.09961e-46 0)
(4.21028e-46 -3.13289e-46 0)
(3.30885e-45 -3.22602e-45 0)
(2.61581e-44 -2.83773e-44 0)
(1.9354e-43 -2.27444e-43 0)
(1.23128e-42 -1.70857e-42 0)
(7.1948e-42 -1.1074e-41 0)
(3.06447e-41 -6.61386e-41 0)
(1.15437e-40 -2.90199e-40 0)
(7.58923e-41 -1.12797e-39 0)
(-1.76562e-40 -8.98483e-40 0)
(-3.11006e-40 8.43222e-40 0)
(-1.44292e-39 5.80493e-40 0)
(-1.45109e-38 -5.40254e-39 0)
(-1.35158e-37 -5.58178e-38 0)
(-1.14476e-36 -5.31486e-37 0)
(-9.30984e-36 -4.69847e-36 0)
(-6.55001e-35 -4.0825e-35 0)
(-4.41896e-34 -3.18456e-34 0)
(-2.13262e-33 -2.43383e-33 0)
(-9.62823e-33 -1.39076e-32 0)
(-7.12761e-35 -6.62954e-32 0)
(9.51581e-33 -1.15106e-32 0)
(-1.25963e-35 -4.30492e-34 0)
(1.80138e-34 -1.78109e-34 0)
(5.13816e-35 -1.30271e-34 0)
(2.14679e-35 -2.71577e-35 0)
(4.28107e-36 -5.21203e-36 0)
(8.30847e-37 -7.5859e-37 0)
(1.25055e-37 -1.05069e-37 0)
(1.78971e-38 -1.29606e-38 0)
(2.24768e-39 -1.71336e-39 0)
(2.32686e-40 -4.10508e-40 0)
(-2.7946e-41 1.29741e-40 0)
(2.71326e-41 3.62747e-40 0)
(5.92506e-41 -8.32408e-41 0)
(-1.5485e-41 -2.3079e-40 0)
(-3.56762e-41 9.4248e-41 0)
(6.15643e-42 1.49596e-40 0)
(1.4345e-41 3.98506e-41 0)
(3.96269e-42 9.34738e-42 0)
(9.57901e-43 1.59789e-42 0)
(1.6719e-43 2.50749e-43 0)
(2.66983e-44 3.38446e-44 0)
(3.6551e-45 4.27014e-45 0)
(4.67229e-46 4.90043e-46 0)
(6.01307e-47 4.78373e-47 0)
(6.062e-47 -4.83575e-47 0)
(4.72476e-46 -4.9494e-46 0)
(3.70232e-45 -4.31809e-45 0)
(2.70975e-44 -3.42832e-44 0)
(1.70206e-43 -2.5455e-43 0)
(9.78742e-43 -1.6278e-42 0)
(4.07599e-42 -9.5691e-42 0)
(1.48094e-41 -4.12625e-41 0)
(5.38267e-42 -1.58177e-40 0)
(-6.7674e-41 -1.3487e-40 0)
(-4.78154e-40 2.72627e-42 0)
(-4.69007e-39 -1.17059e-39 0)
(-4.59403e-38 -1.4037e-38 0)
(-4.33366e-37 -1.4141e-37 0)
(-3.76114e-36 -1.39523e-36 0)
(-3.15395e-35 -1.30052e-35 0)
(-2.30644e-34 -1.23199e-34 0)
(-1.62887e-33 -1.08083e-33 0)
(-8.34863e-33 -9.51095e-33 0)
(-3.99862e-32 -6.32969e-32 0)
(-5.75027e-34 -3.40143e-31 0)
(3.59172e-32 -5.57526e-32 0)
(-9.35368e-36 -3.04449e-36 0)
(-8.23219e-35 -2.03733e-35 0)
(-4.11444e-34 -1.42338e-34 0)
(-4.01733e-33 -1.0717e-34 0)
(-3.67985e-33 2.73655e-34 0)
(3.67985e-33 2.73655e-34 0)
(4.01733e-33 -1.07169e-34 0)
(4.11452e-34 -1.42336e-34 0)
(8.24421e-35 -2.0378e-35 0)
(9.69771e-36 -3.32375e-36 0)
(1.36225e-36 -3.94678e-37 0)
(1.50911e-37 -4.87458e-38 0)
(-1.65991e-42 -1.0221e-38 0)
(-1.50929e-37 -4.87507e-38 0)
(-1.36244e-36 -3.9473e-37 0)
(-9.69957e-36 -3.32429e-36 0)
(-8.24601e-35 -2.03832e-35 0)
(-4.11606e-34 -1.42385e-34 0)
(-4.01871e-33 -1.07569e-34 0)
(-3.6897e-33 2.70283e-34 0)
(3.59603e-33 2.52878e-34 0)
(3.59603e-33 -2.52878e-34 0)
(-3.6897e-33 -2.70283e-34 0)
(-4.01871e-33 1.07569e-34 0)
(-4.11606e-34 1.42385e-34 0)
(-8.24603e-35 2.03831e-35 0)
(-9.70144e-36 3.32374e-36 0)
(-1.38062e-36 3.89521e-37 0)
(-3.0718e-37 -4.84762e-40 0)
(-1.39642e-36 -3.94136e-37 0)
(-9.83616e-36 -3.36679e-36 0)
(-8.36681e-35 -2.0729e-35 0)
(-4.19923e-34 -1.45308e-34 0)
(-4.0913e-33 -1.24575e-34 0)
(-4.01733e-33 1.48725e-34 0)
(-1.61837e-39 2.91416e-34 0)
(4.01732e-33 1.48721e-34 0)
(4.09117e-33 -1.24611e-34 0)
(4.18518e-34 -1.45386e-34 0)
(7.68862e-35 -1.85665e-35 0)
(-3.60999e-36 1.37763e-36 0)
(-2.81606e-35 1.0868e-35 0)
(-1.36387e-34 7.58067e-35 0)
(-8.48106e-34 5.68885e-35 0)
(-7.36579e-34 -1.45471e-34 0)
(7.3658e-34 -1.45471e-34 0)
(8.48106e-34 5.68884e-35 0)
(1.36391e-34 7.58062e-35 0)
(2.82186e-35 1.08811e-35 0)
(3.85512e-36 1.67958e-36 0)
(5.60701e-37 1.91028e-37 0)
(6.64114e-38 2.23484e-38 0)
(-8.27128e-43 4.49e-39 0)
(-6.64203e-38 2.23503e-38 0)
(-5.60792e-37 1.9105e-37 0)
(-3.85599e-36 1.67981e-36 0)
(-2.82267e-35 1.08833e-35 0)
(-1.36459e-34 7.58286e-35 0)
(-8.48675e-34 5.70817e-35 0)
(-7.40503e-34 -1.43769e-34 0)
(7.07792e-34 -1.34397e-34 0)
(7.07792e-34 1.34397e-34 0)
(-7.40503e-34 1.43769e-34 0)
(-8.48675e-34 -5.70817e-35 0)
(-1.36459e-34 -7.58286e-35 0)
(-2.82268e-35 -1.08833e-35 0)
(-3.85687e-36 -1.67958e-36 0)
(-5.69029e-37 -1.88764e-37 0)
(-1.35339e-37 2.05152e-40 0)
(-5.7614e-37 1.908e-37 0)
(-3.91598e-36 1.69944e-36 0)
(-2.87195e-35 1.1052e-35 0)
(-1.39746e-34 7.73149e-35 0)
(-8.72971e-34 6.62608e-35 0)
(-8.48107e-34 -7.90371e-35 0)
(-8.2523e-40 -1.55016e-34 0)
(8.48098e-34 -7.90356e-35 0)
(8.72906e-34 6.62703e-35 0)
(1.39129e-34 7.72238e-35 0)
(2.55241e-35 8.2528e-36 0)
(-1.07168e-36 5.63344e-37 0)
(-7.05068e-36 4.19611e-36 0)
(-2.63182e-35 2.32719e-35 0)
(-1.27595e-34 1.60245e-35 0)
(-1.07396e-34 -4.42875e-35 0)
(1.07396e-34 -4.42875e-35 0)
(1.27595e-34 1.60244e-35 0)
(2.63188e-35 2.32716e-35 0)
(7.06129e-36 4.20088e-36 0)
(1.09971e-36 6.92848e-37 0)
(1.77607e-37 8.60951e-38 0)
(2.24832e-38 1.05051e-38 0)
(-3.31102e-43 2.21593e-39 0)
(-2.24867e-38 1.05062e-38 0)
(-1.77642e-37 8.61062e-38 0)
(-1.10004e-36 6.92964e-37 0)
(-7.0642e-36 4.202e-36 0)
(-2.63419e-35 2.32821e-35 0)
(-1.27776e-34 1.61117e-35 0)
(-1.08518e-34 -4.35841e-35 0)
(1.00154e-34 -3.99994e-35 0)
(1.00154e-34 3.99994e-35 0)
(-1.08518e-34 4.35841e-35 0)
(-1.27776e-34 -1.61117e-35 0)
(-2.63419e-35 -2.32821e-35 0)
(-7.06424e-36 -4.20199e-36 0)
(-1.10036e-36 -6.92847e-37 0)
(-1.80589e-37 -8.49771e-38 0)
(-4.59001e-38 1.0396e-40 0)
(-1.83115e-37 8.59789e-38 0)
(-1.12025e-36 7.02119e-37 0)
(-7.21875e-36 4.27756e-36 0)
(-2.72611e-35 2.38878e-35 0)
(-1.33714e-34 1.96092e-35 0)
(-1.27595e-34 -2.46006e-35 0)
(-1.86715e-40 -4.79498e-35 0)
(1.27594e-34 -2.45998e-35 0)
(1.33703e-34 1.96144e-35 0)
(2.7157e-35 2.38579e-35 0)
(6.66528e-36 3.18783e-36 0)
(-2.26917e-37 1.84251e-37 0)
(-1.28535e-36 1.27708e-36 0)
(-3.70875e-36 6.551e-36 0)
(-1.47292e-35 4.36851e-36 0)
(-1.21158e-35 -1.24615e-35 0)
(1.21158e-35 -1.24615e-35 0)
(1.47292e-35 4.36851e-36 0)
(3.70873e-36 6.55098e-36 0)
(1.28637e-36 1.27931e-36 0)
(2.25927e-37 2.28295e-37 0)
(3.96413e-38 3.01426e-38 0)
(5.31002e-39 3.88094e-39 0)
(-8.93325e-44 8.52642e-40 0)
(-5.31095e-39 3.88138e-39 0)
(-3.96504e-38 3.01471e-38 0)
(-2.2601e-37 2.28341e-37 0)
(-1.28709e-36 1.27974e-36 0)
(-3.7142e-36 6.55486e-36 0)
(-1.47695e-35 4.39907e-36 0)
(-1.23472e-35 -1.22294e-35 0)
(1.0789e-35 -1.11517e-35 0)
(1.0789e-35 1.11517e-35 0)
(-1.23472e-35 1.22294e-35 0)
(-1.47695e-35 -4.39907e-36 0)
(-3.7142e-36 -6.55486e-36 0)
(-1.2871e-36 -1.27973e-36 0)
(-2.26093e-37 -2.28294e-37 0)
(-4.03767e-38 -2.97122e-38 0)
(-1.08572e-38 4.12689e-41 0)
(-4.09953e-38 3.00963e-38 0)
(-2.30765e-37 2.31699e-37 0)
(-1.32128e-36 1.30599e-36 0)
(-3.89976e-36 6.75259e-36 0)
(-1.58245e-35 5.4462e-36 0)
(-1.47292e-35 -6.98825e-36 0)
(-2.75234e-41 -1.35663e-35 0)
(1.4729e-35 -6.98806e-36 0)
(1.58235e-35 5.44703e-36 0)
(3.89128e-36 6.73819e-36 0)
(1.26388e-36 9.60169e-37 0)
(-4.36611e-38 4.17585e-38 0)
(-2.13863e-37 2.76672e-37 0)
(-4.32332e-37 1.32501e-36 0)
(-1.26601e-36 8.55702e-37 0)
(-1.01266e-36 -2.51866e-36 0)
(1.01266e-36 -2.51866e-36 0)
(1.26601e-36 8.55702e-37 0)
(4.32289e-37 1.32503e-36 0)
(2.13753e-37 2.77312e-37 0)
(4.17514e-38 5.22848e-38 0)
(7.92542e-39 7.25007e-39 0)
(1.11244e-39 9.69685e-40 0)
(-2.10139e-44 2.1985e-40 0)
(-1.11265e-39 9.69804e-40 0)
(-7.9275e-39 7.25131e-39 0)
(-4.17698e-38 5.22971e-38 0)
(-2.1391e-37 2.77423e-37 0)
(-4.33438e-37 1.326e-36 0)
(-1.27409e-36 8.63062e-37 0)
(-1.05556e-36 -2.4654e-36 0)
(7.90819e-37 -2.23398e-36 0)
(7.90819e-37 2.23398e-36 0)
(-1.05556e-36 2.4654e-36 0)
(-1.27409e-36 -8.63062e-37 0)
(-4.33439e-37 -1.326e-36 0)
(-2.13912e-37 -2.77422e-37 0)
(-4.17884e-38 -5.22847e-38 0)
(-8.08558e-39 -7.13905e-39 0)
(-2.27781e-39 1.08774e-41 0)
(-8.21951e-39 7.23784e-39 0)
(-4.27626e-38 5.31312e-38 0)
(-2.2069e-37 2.83701e-37 0)
(-4.67107e-37 1.37092e-36 0)
(-1.44495e-36 1.08712e-36 0)
(-1.26601e-36 -1.42505e-36 0)
(-1.49183e-42 -2.75656e-36 0)
(1.26601e-36 -1.42502e-36 0)
(1.44511e-36 1.08714e-36 0)
(4.68361e-37 1.36671e-36 0)
(2.22026e-37 2.05207e-37 0)
(-7.46896e-39 8.47011e-39 0)
(-3.25003e-38 5.38503e-38 0)
(-4.43518e-38 2.47668e-37 0)
(-6.86408e-38 1.56897e-37 0)
(-5.10364e-38 -4.71108e-37 0)
(5.10364e-38 -4.71108e-37 0)
(6.86404e-38 1.56899e-37 0)
(4.43418e-38 2.47682e-37 0)
(3.24373e-38 5.40493e-38 0)
(6.91356e-39 1.06989e-38 0)
(1.39461e-39 1.54171e-39 0)
(2.03289e-40 2.13238e-40 0)
(-4.22717e-45 4.96042e-41 0)
(-2.03332e-40 2.13266e-40 0)
(-1.39501e-39 1.542e-39 0)
(-6.9171e-39 1.07017e-38 0)
(-3.24667e-38 5.40744e-38 0)
(-4.45521e-38 2.47895e-37 0)
(-7.00648e-38 1.58465e-37 0)
(-5.81603e-38 -4.60196e-37 0)
(1.71747e-38 -4.15492e-37 0)
(1.71747e-38 4.15492e-37 0)
(-5.81603e-38 4.60196e-37 0)
(-7.00648e-38 -1.58465e-37 0)
(-4.45522e-38 -2.47895e-37 0)
(-3.24671e-38 -5.40741e-38 0)
(-6.92069e-39 -1.06989e-38 0)
(-1.4248e-39 -1.51665e-39 0)
(-4.16765e-40 2.5017e-42 0)
(-1.44992e-39 1.53889e-39 0)
(-7.09801e-39 1.08842e-38 0)
(-3.36518e-38 5.54023e-38 0)
(-5.00413e-38 2.57027e-37 0)
(-9.53782e-38 2.01602e-37 0)
(-6.86404e-38 -2.6813e-37 0)
(4.05557e-43 -5.17187e-37 0)
(6.86466e-38 -2.6813e-37 0)
(9.54579e-38 2.01562e-37 0)
(5.0641e-38 2.55948e-37 0)
(3.54304e-38 3.9398e-38 0)
(-9.77962e-40 1.37891e-39 0)
(-4.76299e-39 8.95057e-39 0)
(-4.31124e-39 4.10227e-38 0)
(1.83828e-39 2.55508e-38 0)
(2.28363e-39 -7.81753e-38 0)
(-2.28278e-39 -7.81745e-38 0)
(-1.83349e-39 2.55587e-38 0)
(4.33888e-39 4.10773e-38 0)
(4.77496e-39 9.29618e-39 0)
(1.0841e-39 1.91249e-39 0)
(2.29106e-40 2.84574e-40 0)
(3.43755e-41 4.04367e-41 0)
(-7.73412e-46 9.61083e-42 0)
(-3.43833e-41 4.04424e-41 0)
(-2.29178e-40 2.84632e-40 0)
(-1.08473e-39 1.91305e-39 0)
(-4.78006e-39 9.30104e-39 0)
(-4.3745e-39 4.11177e-38 0)
(1.59922e-39 2.58481e-38 0)
(1.16314e-39 -7.62215e-38 0)
(-7.29211e-39 -6.85889e-38 0)
(-7.29211e-39 6.85889e-38 0)
(1.16314e-39 7.62215e-38 0)
(1.59922e-39 -2.58481e-38 0)
(-4.37451e-39 -4.11177e-38 0)
(-4.78014e-39 -9.30099e-39 0)
(-1.08536e-39 -1.91249e-39 0)
(-2.34342e-40 -2.79717e-40 0)
(-7.05472e-41 4.9236e-43 0)
(-2.38678e-40 2.84018e-40 0)
(-1.11525e-39 1.94752e-39 0)
(-4.97369e-39 9.54506e-39 0)
(-5.22434e-39 4.27408e-38 0)
(-2.05601e-39 3.31913e-38 0)
(1.83351e-39 -4.47298e-38 0)
(1.76977e-43 -8.60604e-38 0)
(-1.8315e-39 -4.47306e-38 0)
(2.0762e-39 3.31773e-38 0)
(5.37067e-39 4.25144e-38 0)
(5.45307e-39 6.685e-39 0)
(3.97299e-39 8.53197e-40 0)
(1.01095e-41 -9.30067e-40 0)
(-1.50272e-40 6.05117e-39 0)
(1.24028e-39 3.89972e-39 0)
(1.09103e-39 -1.22627e-38 0)
(-1.08467e-39 -1.22578e-38 0)
(-1.19911e-39 3.9517e-39 0)
(4.29353e-40 6.43572e-39 0)
(6.72797e-40 1.49578e-39 0)
(1.5976e-40 3.17604e-40 0)
(3.49251e-41 4.84727e-41 0)
(5.36115e-42 7.04246e-42 0)
(-1.28757e-46 1.70323e-42 0)
(-5.36243e-42 7.04351e-42 0)
(-3.4937e-41 4.84832e-41 0)
(-1.59861e-40 3.17704e-40 0)
(-6.73608e-40 1.49665e-39 0)
(-4.34908e-40 6.44277e-39 0)
(1.16343e-39 4.00107e-39 0)
(9.1998e-40 -1.19326e-38 0)
(-1.79385e-39 -1.07121e-38 0)
(-1.79385e-39 1.07121e-38 0)
(9.1998e-40 1.19326e-38 0)
(1.16343e-39 -4.00107e-39 0)
(-4.3491e-40 -6.44277e-39 0)
(-6.7362e-40 -1.49664e-39 0)
(-1.59963e-40 -3.17603e-40 0)
(-3.57584e-41 -4.76117e-41 0)
(-1.10121e-41 8.84005e-44 0)
(-3.6446e-41 4.83727e-41 0)
(-1.64612e-40 3.23685e-40 0)
(-7.02994e-40 1.53806e-39 0)
(-5.58923e-40 6.71104e-39 0)
(6.55957e-40 5.17221e-39 0)
(1.19918e-39 -7.04196e-39 0)
(4.21797e-44 -1.35208e-38 0)
(-1.19875e-39 -7.04223e-39 0)
(-6.52035e-40 5.16878e-39 0)
(5.8638e-40 6.66837e-39 0)
(7.95248e-40 1.06248e-39 0)
(7.49722e-38 -1.84228e-38 0)
(8.78351e-39 -1.59349e-38 0)
(2.44036e-39 -1.41412e-39 0)
(5.47732e-40 2.93966e-40 0)
(2.40794e-40 -1.82136e-39 0)
(-1.97184e-40 -1.7967e-39 0)
(-2.29389e-40 5.70974e-40 0)
(4.52516e-41 9.41464e-40 0)
(9.18915e-41 2.23922e-40 0)
(2.24919e-41 4.87585e-41 0)
(5.04145e-42 7.5995e-42 0)
(7.87715e-43 1.12424e-42 0)
(-1.98643e-47 2.75899e-43 0)
(-7.87911e-43 1.12442e-42 0)
(-5.04324e-42 7.60126e-42 0)
(-2.25069e-41 4.8775e-41 0)
(-9.20094e-41 2.24063e-40 0)
(-4.60337e-41 9.42606e-40 0)
(2.24625e-40 5.78925e-40 0)
(1.77952e-40 -1.74433e-39 0)
(-2.98314e-40 -1.56255e-39 0)
(-2.98314e-40 1.56255e-39 0)
(1.77952e-40 1.74433e-39 0)
(2.24624e-40 -5.78925e-40 0)
(-4.60339e-41 -9.42606e-40 0)
(-9.20113e-41 -2.24061e-40 0)
(-2.25224e-41 -4.87585e-41 0)
(-5.16589e-42 -7.46001e-42 0)
(-1.6192e-42 1.44756e-44 0)
(-5.26826e-42 7.58311e-42 0)
(-2.32039e-41 4.9727e-41 0)
(-9.62364e-41 2.30535e-40 0)
(-6.33615e-41 9.83627e-40 0)
(1.56046e-40 7.52965e-40 0)
(2.2979e-40 -1.03451e-39 0)
(8.10519e-45 -1.98273e-39 0)
(-2.2971e-40 -1.03457e-39 0)
(-1.55381e-40 7.52292e-40 0)
(6.78786e-41 9.76413e-40 0)
(1.11562e-40 1.57394e-40 0)
(1.11236e-36 2.04391e-37 0)
(1.38491e-37 -9.60725e-38 0)
(1.962e-38 -1.34439e-38 0)
(2.12556e-39 -1.28655e-39 0)
(2.48768e-40 -3.74169e-40 0)
(-8.8304e-42 -2.60569e-40 0)
(-3.22131e-41 7.79355e-41 0)
(5.19675e-42 1.31089e-40 0)
(1.20385e-41 3.17651e-41 0)
(3.01072e-42 7.05233e-42 0)
(6.87574e-43 1.11734e-42 0)
(1.09001e-43 1.67614e-43 0)
(-2.48831e-48 4.16062e-44 0)
(-1.09024e-43 1.67643e-43 0)
(-6.87755e-43 1.11763e-42 0)
(-3.01185e-42 7.05519e-42 0)
(-1.20423e-41 3.17912e-41 0)
(-5.14973e-42 1.31323e-40 0)
(3.33853e-41 7.99283e-41 0)
(2.63964e-41 -2.42854e-40 0)
(-4.22495e-41 -2.17166e-40 0)
(-4.22495e-41 2.17166e-40 0)
(2.63964e-41 2.42854e-40 0)
(3.33853e-41 -7.99283e-41 0)
(-5.14976e-42 -1.31323e-40 0)
(-1.20426e-41 -3.17909e-41 0)
(-3.01404e-42 -7.05267e-42 0)
(-7.04951e-43 -1.09632e-42 0)
(-2.2419e-43 2.20131e-45 0)
(-7.1927e-43 1.11487e-42 0)
(-3.10818e-42 7.19677e-42 0)
(-1.2617e-41 3.27404e-41 0)
(-7.45476e-42 1.37238e-40 0)
(2.4483e-41 1.04478e-40 0)
(3.40902e-41 -1.44607e-40 0)
(1.35087e-45 -2.76753e-40 0)
(-3.40775e-41 -1.44618e-40 0)
(-2.43818e-41 1.04362e-40 0)
(8.12387e-42 1.36111e-40 0)
(1.48879e-41 2.21453e-41 0)
(5.35968e-34 -2.5289e-33 0)
(1.6856e-33 -8.74697e-34 0)
(4.1638e-34 -6.09248e-34 0)
(1.41219e-34 -1.20667e-34 0)
(2.56438e-35 -2.19357e-35 0)
(4.67481e-36 -3.06619e-36 0)
(6.72726e-37 -4.09683e-37 0)
(9.33115e-38 -4.85308e-38 0)
(1.14053e-38 -5.54657e-39 0)
(1.33137e-39 -6.06672e-40 0)
(1.38297e-40 -4.53661e-41 0)
(1.7023e-41 2.87463e-41 0)
(6.94895e-42 -8.30512e-42 0)
(-1.43245e-42 -2.17992e-41 0)
(-3.44904e-42 8.882e-42 0)
(5.13306e-43 1.41655e-41 0)
(1.31212e-42 3.83992e-42 0)
(3.6822e-43 9.23163e-43 0)
(9.02013e-44 1.60934e-43 0)
(1.59171e-44 2.57402e-44 0)
(2.56452e-45 3.53025e-45 0)
(3.53826e-46 4.51864e-46 0)
(4.55119e-47 5.25031e-47 0)
(5.89079e-48 5.17632e-48 0)
(5.92844e-48 -5.23305e-48 0)
(4.58611e-47 -5.30292e-47 0)
(3.56071e-46 -4.56923e-46 0)
(2.57038e-45 -3.57535e-45 0)
(1.57641e-44 -2.61169e-44 0)
(8.6375e-44 -1.63715e-43 0)
(3.05186e-43 -9.41589e-43 0)
(4.48497e-43 -3.92842e-42 0)
(-1.02888e-41 -1.43695e-41 0)
(-1.29321e-40 -5.37586e-42 0)
(-1.38821e-39 8.26662e-41 0)
(-1.46639e-38 7.61348e-40 0)
(-1.464e-37 7.39336e-39 0)
(-1.41826e-36 6.43415e-38 0)
(-1.26725e-35 4.28322e-37 0)
(-1.10733e-34 4.12531e-38 0)
(-8.45782e-34 -6.41803e-35 0)
(-6.41126e-33 -1.46266e-33 0)
(-3.52777e-32 -2.0907e-32 0)
(-1.99836e-31 -2.08233e-31 0)
(1.20702e-33 -1.18885e-30 0)
(2.00101e-31 -2.0808e-31 0)
(1.2237e-32 -1.33723e-32 0)
(2.16055e-32 -5.21978e-33 0)
(4.18392e-33 -3.84378e-33 0)
(1.00718e-33 -6.65373e-34 0)
(1.59163e-34 -1.15339e-34 0)
(2.59063e-35 -1.52815e-35 0)
(3.48946e-36 -1.98626e-36 0)
(4.59936e-37 -2.28583e-37 0)
(5.42779e-38 -2.55616e-38 0)
(6.18011e-39 -2.65007e-39 0)
(6.52204e-40 -2.64138e-40 0)
(6.64913e-41 -2.2207e-41 0)
(6.78077e-42 -2.95462e-42 0)
(4.69626e-43 -2.04237e-42 0)
(-2.09913e-43 7.34048e-43 0)
(4.09293e-44 1.20162e-42 0)
(9.786e-44 3.29723e-43 0)
(2.77767e-44 7.99802e-44 0)
(6.9093e-45 1.40637e-44 0)
(1.23476e-45 2.26311e-45 0)
(2.01323e-46 3.12133e-46 0)
(2.80614e-47 4.01084e-47 0)
(3.64231e-48 4.67643e-48 0)
(4.7595e-49 4.62199e-49 0)
(4.85547e-49 -4.64487e-49 0)
(3.77217e-48 -4.68421e-48 0)
(2.96767e-47 -3.99867e-47 0)
(2.21506e-46 -3.08003e-46 0)
(1.48552e-45 -2.18383e-45 0)
(1.00125e-44 -1.27962e-44 0)
(6.54813e-44 -6.18549e-44 0)
(5.47993e-43 -8.83177e-44 0)
(5.24476e-42 1.82842e-42 0)
(5.8235e-41 3.54293e-41 0)
(6.28551e-40 4.14897e-40 0)
(6.51883e-39 4.47177e-39 0)
(6.38608e-38 4.59562e-38 0)
(6.01953e-37 4.26416e-37 0)
(5.25422e-36 3.34355e-36 0)
(4.41543e-35 1.27427e-35 0)
(3.27594e-34 -2.06946e-34 0)
(2.33474e-33 -6.87707e-33 0)
(1.24469e-32 -1.15027e-31 0)
(6.19679e-32 -1.39554e-30 0)
(2.10583e-32 -1.18066e-29 0)
(-3.69048e-32 -1.39953e-30 0)
(1.61828e-31 -1.02766e-31 0)
(1.98056e-31 -1.35419e-32 0)
(2.71024e-32 -1.224e-33 0)
(6.17197e-33 -8.35253e-35 0)
(8.79068e-34 -3.98753e-36 0)
(1.38172e-34 -8.64546e-38 0)
(1.77698e-35 1.06093e-38 0)
(2.28786e-36 1.93865e-39 0)
(2.63053e-37 2.29727e-40 0)
(2.94605e-38 2.28267e-41 0)
(3.05883e-39 2.24621e-42 0)
(3.07127e-40 4.13749e-43 0)
(2.91696e-41 -3.35498e-44 0)
(2.6621e-42 -1.39371e-43 0)
(2.13976e-43 5.74661e-44 0)
(2.2547e-44 9.2253e-44 0)
(9.02654e-45 2.55966e-44 0)
(2.25669e-45 6.28767e-45 0)
(5.43903e-46 1.11794e-45 0)
(9.68976e-47 1.81692e-46 0)
(1.58241e-47 2.5279e-47 0)
(2.21363e-48 3.27271e-48 0)
(2.88411e-49 3.84107e-49 0)
(3.99371e-50 3.81295e-50 0)
(7.04914e-50 -3.87661e-50 0)
(7.63998e-49 -3.9101e-49 0)
(8.94485e-48 -3.35381e-48 0)
(1.08614e-46 -2.6232e-47 0)
(1.3391e-45 -1.93051e-46 0)
(1.67058e-44 -1.25389e-45 0)
(2.05683e-43 -7.93359e-45 0)
(2.49139e-42 -4.53568e-44 0)
(2.91807e-41 -3.28098e-43 0)
(3.31502e-40 -2.79298e-42 0)
(3.60014e-39 -3.07937e-41 0)
(3.77555e-38 -3.31338e-40 0)
(3.74229e-37 -3.3392e-39 0)
(3.58352e-36 -2.88127e-38 0)
(3.17751e-35 -1.68823e-37 0)
(2.73423e-34 9.31632e-37 0)
(2.07533e-33 5.27936e-35 0)
(1.54171e-32 1.1396e-33 0)
(8.54292e-32 1.71018e-32 0)
(4.70903e-31 1.93504e-31 0)
(2.03968e-31 1.53413e-30 0)
(-2.39193e-31 1.93138e-31 0)
(1.82728e-32 -1.00208e-31 0)
(1.84766e-32 -1.04038e-32 0)
(3.64893e-33 2.37472e-33 0)
(8.98551e-34 5.60604e-34 0)
(1.44787e-34 1.09686e-34 0)
(2.39503e-35 1.50698e-35 0)
(3.26381e-36 1.98644e-36 0)
(4.34155e-37 2.29602e-37 0)
(5.15939e-38 2.57032e-38 0)
(5.90792e-39 2.66305e-39 0)
(6.26687e-40 2.66745e-40 0)
(6.39377e-41 2.5268e-41 0)
(6.1609e-42 2.3065e-42 0)
(5.70833e-43 1.91231e-43 0)
(4.91938e-44 2.14929e-44 0)
(4.52482e-45 8.48686e-45 0)
(8.88531e-46 2.09537e-45 0)
(1.82717e-46 4.99189e-46 0)