/*--------------------------------*- C++ -*----------------------------------*\
| =========                 |                                                 |
| \\      /  F ield         | OpenFOAM: The Open Source CFD Toolbox           |
|  \\    /   O peration     | Version:  2.4.0                                 |
|   \\  /    A nd           | Web:      www.OpenFOAM.org                      |
|    \\/     M anipulation  |                                                 |
\*---------------------------------------------------------------------------*/
FoamFile
{
    version     2.0;
    format      ascii;
    class       surfaceScalarField;
    location    "0.85";
    object      phi;
}
// * * * * * * * * * * * * * * * * * * * * * * * * * * * * * * * * * * * * * //

dimensions      [0 3 -1 0 0 0 0];

internalField   nonuniform List<scalar> 
3742
(
-3.44085e-36
1.95844e-36
-5.78316e-37
2.72299e-37
-8.12497e-38
3.71184e-38
-1.10825e-38
4.44717e-39
-1.3599e-39
5.1765e-40
-1.60353e-40
5.57457e-41
-1.75794e-41
5.80411e-42
-1.85096e-42
5.71042e-43
-1.84379e-43
5.42826e-44
-1.76804e-44
4.93168e-45
-1.62074e-45
4.33504e-46
-1.43443e-46
3.66793e-47
-1.21931e-47
3.00877e-48
-6.5869e-49
2.3655e-49
4.39777e-48
-9.17504e-51
5.54322e-47
-3.35681e-49
6.63249e-46
-4.03216e-48
7.63378e-45
-4.70057e-47
8.47322e-44
-5.35396e-46
9.0002e-43
-5.91426e-45
9.19797e-42
-6.36376e-44
8.92262e-41
-6.59275e-43
8.31089e-40
-6.62781e-42
7.25204e-39
-6.34746e-41
-5.88001e-40
-3.84922e-34
4.95217e-36
-1.72189e-33
3.21589e-35
-1.49993e-33
1.69167e-34
-4.07485e-32
2.41267e-35
2.61855e-32
-3.27348e-34
1.34056e-32
-7.58755e-35
-1.2362e-32
2.01018e-34
6.08481e-34
1.56309e-35
6.4153e-34
-1.16948e-34
1.4999e-32
-7.81033e-35
2.09275e-33
-2.57179e-35
1.56473e-32
-1.65804e-34
1.57669e-33
7.38322e-37
1.46605e-32
6.66415e-35
-1.29656e-32
6.93708e-35
1.31363e-32
2.29528e-35
-1.39581e-32
5.7151e-35
-4.3822e-34
3.1452e-37
-5.50296e-34
-5.48355e-35
-1.2621e-34
-1.03368e-35
-1.87291e-35
-1.95844e-36
-3.01522e-36
-2.72299e-37
-4.02647e-37
-3.71184e-38
-5.33994e-38
-4.44717e-39
-6.36605e-39
-5.1765e-40
-7.36261e-40
-5.57457e-41
-7.92172e-41
-5.80411e-42
-8.22428e-42
-5.71042e-43
-8.08432e-43
-5.42826e-44
-7.66965e-44
-4.93168e-45
-6.96067e-45
-4.33504e-46
-6.10881e-46
-3.66795e-47
-5.16264e-47
-3.01058e-48
-4.16986e-48
-2.57208e-49
5.03201e-49
-2.1928e-49
1.10485e-47
-2.10083e-48
1.3849e-46
-2.11932e-47
1.64425e-45
-2.0469e-46
1.85818e-44
-1.91666e-45
1.99358e-43
-1.716e-44
2.03791e-42
-1.50886e-43
1.96736e-41
-1.27609e-42
1.80785e-40
-1.08665e-41
1.55135e-39
-8.99153e-41
-7.64544e-40
-6.32924e-35
6.49541e-36
-2.64908e-34
3.82084e-35
-1.2715e-33
1.95213e-34
-1.41339e-33
2.69643e-35
5.57666e-34
-3.7724e-34
1.02054e-33
-8.80673e-35
-1.67837e-34
2.31087e-34
-2.49266e-34
1.84021e-35
4.50607e-34
-1.34942e-34
9.23102e-34
-9.00846e-35
1.02027e-33
-2.35114e-35
1.0213e-33
-9.9459e-36
9.39734e-34
7.7996e-36
5.22135e-34
7.78017e-35
8.89053e-35
8.04644e-35
-5.9958e-35
2.71441e-35
-4.12023e-34
6.59679e-35
-4.15464e-34
3.78782e-37
-8.47424e-35
-6.3204e-35
-2.0757e-35
-1.22112e-35
-3.44085e-36
-2.33352e-36
-5.78316e-37
-3.27684e-37
-8.12497e-38
-4.49026e-38
-1.10825e-38
-5.40966e-39
-1.3599e-39
-6.31983e-40
-1.60353e-40
-6.83069e-41
-1.75794e-41
-7.13134e-42
-1.85096e-42
-7.03473e-43
-1.84379e-43
-6.70132e-44
-1.76804e-44
-6.10056e-45
-1.62074e-45
-5.37165e-46
-1.43447e-46
-4.55243e-47
-1.22432e-47
-3.75176e-48
-1.24252e-48
-4.31304e-49
-2.26889e-48
-1.45579e-48
-1.89005e-47
-1.45793e-47
-1.5047e-46
-1.41817e-46
-1.04549e-45
-1.29837e-45
-6.08294e-45
-1.12867e-44
-2.03758e-44
-9.03991e-44
8.16208e-44
-6.80987e-43
2.7118e-42
-4.52933e-42
3.35381e-41
-2.79623e-41
3.25453e-40
-1.37523e-40
-6.32101e-40
-9.63907e-36
5.0597e-36
-2.689e-35
8.41128e-36
-9.30277e-35
3.1362e-35
-9.97969e-35
3.43835e-36
3.42776e-35
-5.82607e-35
6.84076e-35
-1.42763e-35
-7.02102e-36
3.50847e-35
-1.11846e-35
3.2437e-36
3.6391e-35
-2.10779e-35
7.23979e-35
-1.46835e-35
8.21114e-35
-4.26451e-36
8.07094e-35
-6.30715e-36
7.27476e-35
1.4645e-36
4.22217e-35
1.24226e-35
8.9912e-36
1.29507e-35
-4.74021e-36
4.93762e-36
-3.03718e-35
1.03128e-35
-3.09337e-35
7.72574e-38
-8.32573e-36
-9.77823e-36
-2.91951e-36
-2.20627e-36
-5.62307e-37
-4.46585e-37
-1.06378e-37
-6.65013e-38
-1.60258e-38
-9.42229e-39
-2.30492e-39
-1.17229e-39
-2.93401e-40
-1.39987e-40
-3.55986e-41
-1.5443e-41
-3.98774e-42
-1.63726e-42
-4.27167e-43
-1.6381e-43
-4.31362e-44
-1.57824e-44
-4.18259e-45
-1.45175e-45
-3.86895e-46
-1.28944e-46
-3.45179e-47
-1.10218e-47
-3.17119e-48
-9.9266e-49
-2.41622e-48
-9.83935e-49
-2.09961e-47
-9.79471e-48
-1.90588e-46
-1.00308e-46
-1.63772e-45
-9.83874e-46
-1.29482e-44
-9.09566e-45
-9.54707e-44
-7.99372e-44
-6.19108e-43
-6.48495e-43
-3.64194e-42
-4.94934e-42
-1.66284e-41
-3.33454e-41
-6.25319e-41
-2.06671e-40
-7.15053e-41
-9.91519e-40
-4.04846e-39
-1.01589e-35
7.08293e-36
-9.09565e-36
5.99449e-36
-6.3262e-36
6.18904e-36
-5.3615e-36
6.71976e-37
1.1945e-36
-9.36115e-36
3.01907e-36
-2.3373e-36
4.14069e-38
5.60301e-36
1.30296e-37
5.32678e-37
2.31202e-36
-3.40786e-36
4.3047e-36
-2.42715e-36
5.0346e-36
-7.80124e-37
4.8016e-36
-1.24129e-36
4.2156e-36
2.05728e-37
2.60773e-36
2.017e-36
6.97279e-37
2.12403e-36
-2.30694e-37
8.43161e-37
-1.61953e-36
1.67458e-36
-1.68684e-36
1.47969e-38
-6.18557e-37
-1.5767e-36
-3.07315e-37
-3.73754e-37
-6.74038e-38
-8.09775e-38
-1.38482e-38
-1.26554e-38
-2.20295e-39
-1.87263e-39
-3.28775e-40
-2.40696e-40
-4.30765e-41
-2.95134e-41
-5.33871e-42
-3.32329e-42
-6.08755e-43
-3.58192e-43
-6.61209e-44
-3.63146e-44
-6.75747e-45
-3.53663e-45
-6.61644e-46
-3.2821e-46
-6.17431e-47
-2.93682e-47
-5.70475e-48
-2.56823e-48
-2.20169e-48
-7.30347e-49
-1.76263e-47
-5.87209e-48
-1.71497e-46
-6.345e-47
-1.57529e-45
-6.566e-46
-1.37181e-44
-6.51594e-45
-1.10243e-43
-6.10769e-44
-8.29764e-43
-5.4583e-43
-5.5292e-42
-4.51925e-42
-3.37526e-41
-3.53692e-41
-1.63838e-40
-2.45846e-40
-6.87864e-40
-1.58235e-39
-1.42494e-39
-7.94584e-39
-3.40477e-38
-1.8187e-34
9.62947e-35
-1.22122e-35
7.58228e-36
-9.27448e-36
5.40571e-37
-2.08021e-36
-5.13805e-38
-3.51639e-37
-1.14106e-36
-6.25494e-38
-2.87878e-37
5.48821e-38
6.57709e-37
1.20415e-37
6.53246e-38
1.24784e-37
-4.06414e-37
1.90566e-37
-2.96257e-37
2.41166e-37
-1.03381e-37
2.01455e-37
-1.591e-37
1.61282e-37
2.23102e-38
1.24944e-37
2.42108e-37
5.16626e-38
2.57207e-37
6.42864e-40
1.06907e-37
-4.3224e-38
2.00352e-37
-5.12972e-38
2.05382e-39
-4.24748e-38
-1.87283e-37
-3.33936e-38
-4.70932e-38
-8.09331e-39
-1.0718e-38
-1.78509e-39
-1.74771e-39
-2.96115e-40
-2.67188e-40
-4.56399e-41
-3.52981e-41
-6.12242e-42
-4.4195e-42
-7.73131e-43
-5.06533e-43
-8.94747e-44
-5.53582e-44
-9.83608e-45
-5.68002e-45
-1.01522e-45
-5.58573e-46
-1.00222e-46
-5.22817e-47
-9.50954e-48
-4.72763e-48
-1.92759e-48
-6.1265e-49
-1.16872e-47
-2.45052e-48
-1.19503e-46
-2.74043e-47
-1.1768e-45
-2.99692e-46
-1.09414e-44
-3.13695e-45
-9.66628e-44
-3.15417e-44
-7.91237e-43
-3.00657e-43
-6.08919e-42
-2.73953e-42
-4.18326e-41
-2.32801e-41
-2.65249e-40
-1.87692e-40
-1.36918e-39
-1.36048e-39
-6.2563e-39
-9.15074e-39
-1.65974e-38
-4.91167e-38
-2.21454e-37
-8.80572e-36
1.47909e-35
-7.66137e-36
1.3812e-35
-1.5921e-36
5.09343e-37
-3.53704e-37
-7.87538e-38
-7.43039e-38
-1.62383e-37
-2.80164e-38
-3.89988e-38
7.13793e-39
7.75152e-38
1.69532e-38
7.77427e-39
6.22513e-39
-4.87221e-38
5.25057e-39
-3.61223e-38
8.62485e-39
-1.37036e-38
3.8206e-39
-2.25327e-38
1.07905e-39
1.93609e-39
4.37457e-39
2.8977e-38
3.82267e-39
3.11001e-38
1.45265e-39
1.32328e-38
2.29559e-39
2.40922e-38
1.44247e-39
2.73719e-40
-2.87275e-39
-2.24009e-38
-3.29405e-39
-5.79738e-39
-8.56147e-40
-1.37765e-39
-1.97721e-40
-2.31909e-40
-3.38583e-41
-3.648e-41
-5.34348e-42
-4.92734e-42
-7.30718e-43
-6.28243e-43
-9.36686e-44
-7.30638e-44
-1.09793e-44
-8.08059e-45
-1.21943e-45
-8.37291e-46
-1.26989e-46
-8.30078e-47
-1.26796e-47
-7.82798e-48
-1.80645e-48
-7.83276e-49
-7.02293e-48
-9.74725e-49
-7.5185e-47
-1.08483e-47
-7.81227e-46
-1.2414e-46
-7.78424e-45
-1.37231e-45
-7.33838e-44
-1.45412e-44
-6.59351e-43
-1.48256e-43
-5.50999e-42
-1.43644e-42
-4.35405e-41
-1.33408e-41
-3.09657e-40
-1.16028e-40
-2.0592e-39
-9.62724e-40
-1.14095e-38
-7.23694e-39
-5.8079e-38
-5.11877e-38
-1.93087e-37
-2.93491e-37
-1.48704e-36
-4.83526e-37
2.73655e-34
-9.07017e-37
1.66727e-35
-2.20001e-37
1.62362e-36
-6.15883e-38
1.20722e-37
-1.36537e-38
-7.04842e-39
-4.76913e-39
-3.33509e-39
6.54293e-40
8.09315e-39
1.93564e-39
8.27489e-40
3.35541e-40
-5.09051e-39
-1.07452e-40
-3.83793e-39
1.39049e-40
-1.55856e-39
-4.45122e-40
-2.61202e-39
-6.64601e-40
1.38026e-40
3.38295e-41
3.0263e-39
3.16964e-40
3.27782e-39
2.18985e-40
1.42986e-39
5.56863e-40
2.52367e-39
4.6755e-40
3.13619e-41
-2.20581e-40
-2.33462e-39
-3.31536e-40
-6.23771e-40
-8.97407e-41
-1.53088e-40
-2.14113e-41
-2.64796e-41
-3.75021e-42
-4.25848e-42
-6.0299e-43
-5.86041e-43
-8.36948e-44
-7.58366e-44
-1.08605e-44
-8.93222e-45
-1.28601e-45
-9.98014e-46
-1.44036e-46
-1.04331e-46
-1.51247e-47
-1.04195e-47
-1.74063e-48
-9.97083e-49
-2.85525e-48
-2.05206e-49
-3.08701e-47
-1.43606e-48
-3.3869e-46
-1.71407e-47
-3.5613e-45
-1.98811e-46
-3.59703e-44
-2.2234e-45
-3.45049e-43
-2.39349e-44
-3.1638e-42
-2.47144e-43
-2.7175e-41
-2.44415e-42
-2.2187e-40
-2.30265e-41
-1.65566e-39
-2.06542e-40
-1.16774e-38
-1.74753e-39
-7.14083e-38
-1.39412e-38
-4.11461e-37
-1.02187e-37
-1.77482e-36
-6.73693e-37
-3.5812e-36
-2.34908e-36
-7.82749e-35
1.3204e-36
5.86583e-36
1.79177e-37
1.63505e-36
1.33349e-38
2.55338e-37
-1.60639e-39
4.04329e-38
-1.00322e-39
5.24719e-39
-5.77908e-41
1.57326e-39
1.68612e-40
1.74241e-40
1.91293e-41
-5.14072e-40
-3.11948e-41
-3.9977e-40
-1.23328e-41
-1.73977e-40
-7.37234e-41
-3.05933e-40
-9.24902e-41
4.97715e-42
-1.25048e-41
3.10212e-40
2.69359e-41
3.39341e-40
2.34883e-41
1.50397e-40
6.40551e-41
2.60432e-40
5.54606e-41
3.45307e-42
-1.79186e-41
-2.4e-40
-3.10175e-41
-6.5392e-41
-8.64563e-42
-1.64739e-41
-2.11018e-42
-2.90761e-42
-3.76464e-43
-4.76072e-43
-6.14292e-44
-6.64807e-44
-8.6352e-45
-8.70805e-45
-1.13209e-45
-1.03612e-45
-1.35256e-46
-1.16741e-46
-1.52671e-47
-1.22911e-47
-1.69554e-48
-1.23592e-48
-1.20412e-48
-1.34581e-49
-1.24254e-47
-2.31309e-49
-1.4254e-46
-2.79941e-48
-1.58081e-45
-3.43289e-47
-1.68166e-44
-4.08765e-46
-1.72108e-43
-4.68089e-45
-1.67607e-42
-5.19702e-44
-1.56419e-41
-5.50869e-43
-1.37144e-40
-5.66871e-42
-1.14849e-39
-5.51866e-41
-8.8276e-39
-5.27106e-40
-6.48313e-38
-4.72355e-39
-4.14325e-37
-4.26964e-38
-2.58162e-36
-3.51197e-37
-1.18745e-35
-2.89209e-36
-1.77217e-35
-1.15953e-35
4.7901e-36
-6.14707e-36
-1.27861e-36
-1.33435e-36
8.25146e-37
-3.1842e-37
1.77627e-37
-5.4365e-38
3.38186e-38
-9.16164e-39
4.74042e-39
-1.29131e-39
7.22463e-40
-1.59323e-40
8.5148e-41
-2.00182e-41
-4.07176e-41
-5.82667e-42
-3.74816e-41
-2.08261e-42
-1.75739e-41
-8.19973e-42
-3.1862e-41
-9.89965e-42
-3.26913e-43
-1.79824e-42
2.92179e-41
2.36396e-42
3.22566e-41
2.28434e-42
1.4528e-41
6.33115e-42
2.46728e-41
5.5251e-42
3.46268e-43
-1.54732e-42
-2.26564e-41
-2.85941e-42
-6.30025e-42
-8.11866e-43
-1.61977e-42
-2.01553e-43
-2.90933e-43
-3.64573e-44
-4.83304e-44
-6.01918e-45
-6.8347e-45
-8.54627e-46
-9.04442e-46
-1.12978e-46
-1.0858e-46
-1.35956e-47
-1.23236e-47
-1.55008e-48
-1.30583e-48
-2.54481e-49
-1.32028e-49
-1.14948e-48
-1.49364e-50
-1.36832e-47
-3.37562e-50
-1.59895e-46
-4.48338e-49
-1.80003e-45
-5.90938e-48
-1.95465e-44
-7.60615e-47
-2.03198e-43
-9.34895e-46
-2.03007e-42
-1.1328e-44
-1.92349e-41
-1.32075e-43
-1.74446e-40
-1.58703e-42
-1.47589e-39
-1.94789e-41
-1.18845e-38
-2.69682e-40
-8.5902e-38
-3.92879e-39
-5.79935e-37
-5.94392e-38
-3.08314e-36
-8.08314e-37
-1.40003e-35
-9.42463e-36
-8.09556e-35
-2.02234e-34
-5.63181e-36
-1.28645e-35
-1.85549e-36
-1.00625e-35
-1.10047e-36
-2.18151e-36
-1.94884e-37
-3.27985e-37
-3.44056e-38
-5.17859e-38
-4.72887e-39
-6.92241e-39
-6.26292e-40
-9.07856e-40
-7.49063e-41
-1.08068e-40
-1.33251e-41
-1.27167e-41
-4.52902e-42
-1.49773e-42
-1.84213e-42
-9.05032e-43
-3.2687e-42
-9.34134e-43
-1.18031e-43
-1.84133e-43
2.67704e-42
1.99404e-43
2.98441e-42
2.03221e-43
1.35996e-42
5.62444e-43
2.27862e-42
4.91511e-43
3.33857e-44
-1.3004e-43
-2.08658e-42
-2.47932e-43
-5.8861e-43
-7.15322e-44
-1.53829e-43
-1.79971e-44
-2.80038e-44
-3.29458e-45
-4.70691e-45
-5.49288e-46
-6.72333e-46
-7.86765e-47
-8.97144e-47
-1.04755e-47
-1.08482e-47
-1.27035e-48
-1.23857e-48
-1.68148e-49
-1.31561e-49
-3.19684e-49
-8.43488e-51
-3.84463e-48
6.47172e-50
-4.6976e-47
8.55167e-49
-5.567e-46
1.07674e-47
-6.35529e-45
1.31113e-46
-7.01807e-44
1.54734e-45
-7.41687e-43
1.75661e-44
-7.56823e-42
1.92465e-43
-7.31548e-41
2.00219e-42
-6.82478e-40
1.97314e-41
-5.92019e-39
1.73672e-40
-4.96757e-38
1.24412e-39
-3.70815e-37
2.98096e-39
-2.68271e-36
-1.09346e-37
-1.48417e-35
-2.88904e-36
-7.91085e-35
-4.37924e-35
-4.85706e-34
-1.11244e-35
-6.49332e-36
-6.75321e-36
-5.35262e-36
-1.45211e-36
-1.58012e-36
-3.41664e-37
-2.53142e-37
-5.75743e-38
-4.23463e-38
-9.57486e-39
-5.74937e-39
-1.35194e-39
-7.67356e-40
-1.83401e-40
-9.18856e-41
-2.25301e-41
-1.10573e-41
-2.67096e-42
-1.46432e-42
-3.02718e-43
-2.80362e-43
-9.88086e-44
-3.19669e-43
-8.48826e-44
-1.84922e-44
-1.7251e-44
2.30588e-43
1.64838e-44
2.59567e-43
1.73859e-44
1.19654e-43
4.79458e-44
1.9783e-43
4.18919e-44
3.01154e-45
-1.08083e-44
-1.80695e-43
-2.09385e-44
-5.17083e-44
-6.11302e-45
-1.36934e-44
-1.55445e-45
-2.52265e-45
-2.87265e-46
-4.28174e-46
-4.82764e-47
-6.17001e-47
-6.96379e-48
-8.29213e-48
-9.3259e-49
-1.0091e-48
-1.13029e-49
-1.15797e-49
-6.36911e-51
-1.20941e-50
8.44454e-50
2.84264e-51
1.07747e-48
5.4733e-50
1.30849e-47
7.11695e-49
1.53885e-46
8.97226e-48
1.74215e-45
1.09409e-46
1.90493e-44
1.29332e-45
1.9916e-43
1.47075e-44
2.00544e-42
1.61498e-43
1.91076e-41
1.68447e-42
1.74919e-40
1.66752e-41
1.48708e-39
1.48013e-40
1.21152e-38
1.08608e-39
8.77297e-38
3.18973e-39
6.01135e-37
-8.1596e-38
3.15518e-36
-2.3089e-36
1.45953e-35
-3.59246e-35
-4.10397e-34
-1.19241e-36
-1.02284e-34
-7.30364e-38
-7.6691e-36
-7.26844e-38
-9.12022e-37
-3.38825e-38
-9.42902e-38
-7.5252e-39
-1.08035e-38
-1.50151e-39
-1.26644e-39
-2.36012e-40
-1.60221e-40
-3.45786e-41
-1.92674e-41
-4.47893e-42
-2.30355e-42
-5.49788e-43
-2.76814e-43
-6.27938e-44
-4.08428e-44
-1.23829e-44
-3.09335e-44
-7.52899e-45
-2.38887e-45
-1.5266e-45
1.92577e-44
1.29766e-45
2.19055e-44
1.41057e-45
1.01908e-44
3.87092e-45
1.66811e-44
3.37955e-45
2.61711e-46
-8.58835e-46
-1.52049e-44
-1.68299e-45
-4.39907e-45
-4.96824e-46
-1.17758e-45
-1.27459e-46
-2.19006e-46
-2.3754e-47
-3.74703e-47
-4.01914e-48
-5.4381e-48
-5.83378e-49
-7.3514e-49
-7.82575e-50
-8.99299e-50
-5.86809e-51
-1.03874e-50
4.88933e-50
-1.42229e-51
6.49712e-49
-4.35564e-51
8.20627e-48
-5.67151e-50
1.00279e-46
-7.35831e-49
1.18794e-45
-9.27814e-48
1.35545e-44
-1.13159e-46
1.49589e-43
-1.3379e-45
1.57959e-42
-1.52165e-44
1.6103e-41
-1.671e-43
1.55453e-40
-1.74248e-42
1.44811e-39
-1.7232e-41
1.25369e-38
-1.52402e-40
1.04955e-37
-1.10413e-39
7.81094e-37
-2.86103e-39
5.63115e-36
9.27269e-38
3.10149e-35
2.52086e-36
1.64392e-34
3.88672e-35
4.4144e-34
2.87685e-37
-8.96103e-36
-4.56209e-37
-5.05837e-36
-8.73354e-38
-5.56088e-37
-1.98249e-38
-4.90044e-38
-3.13937e-39
-4.20704e-39
-5.03194e-40
-3.80938e-40
-6.90828e-41
-4.08624e-41
-9.20578e-42
-4.60312e-42
-1.11602e-42
-5.35188e-43
-1.30054e-43
-6.07688e-44
-1.41933e-44
-7.44709e-45
-1.94098e-45
-3.07585e-45
-7.0331e-46
-2.84657e-46
-1.35377e-46
1.52986e-45
9.87578e-47
1.7608e-45
1.10824e-46
8.26541e-46
3.03145e-46
1.33999e-45
2.64477e-46
2.1599e-47
-6.65282e-47
-1.2191e-45
-1.31465e-46
-3.56502e-46
-3.91547e-47
-9.62874e-47
-1.01181e-47
-1.80601e-47
-1.89868e-48
-3.11099e-48
-3.23049e-49
-4.54361e-49
-4.71311e-50
-6.17341e-50
-6.34001e-51
-7.5885e-51
-3.59673e-52
-9.02748e-52
5.52903e-51
-4.46855e-52
7.25534e-50
-4.84251e-51
9.09728e-49
-6.45526e-50
1.10305e-47
-8.36967e-49
1.2951e-46
-1.05436e-47
1.46364e-45
-1.28465e-46
1.59707e-44
-1.51713e-45
1.66608e-43
-1.72331e-44
1.67305e-42
-1.88934e-43
1.5895e-41
-1.9658e-42
1.44947e-40
-1.9363e-41
1.22739e-39
-1.6982e-40
9.93863e-39
-1.19999e-39
7.15335e-38
-2.39743e-39
4.84443e-37
1.17709e-37
2.51418e-36
3.00577e-36
1.1222e-35
4.52092e-35
4.99372e-34
-2.77217e-38
-9.04354e-36
3.15429e-38
-5.23768e-36
5.08875e-39
-5.48278e-37
5.9991e-40
-4.41748e-38
2.07647e-41
-3.00362e-39
-8.23209e-42
-1.8611e-40
-2.41251e-42
-1.21865e-41
-4.65176e-43
-9.35297e-43
-7.0612e-44
-8.77943e-44
-9.60379e-45
-9.01571e-45
-1.17239e-45
-1.00994e-45
-1.69188e-46
-2.96077e-46
-5.74462e-47
-3.05269e-47
-1.10566e-47
1.17798e-46
7.23177e-48
1.37319e-46
8.35388e-48
6.49504e-47
2.27766e-47
1.04496e-46
1.98567e-47
1.72178e-48
-4.95033e-48
-9.49203e-47
-9.85833e-48
-2.79995e-47
-2.96081e-48
-7.61811e-48
-7.69843e-49
-1.43888e-48
-1.45358e-49
-2.49248e-49
-2.48514e-50
-3.65924e-50
-3.6515e-51
-4.99255e-51
-6.23341e-52
-6.15646e-52
-1.83834e-51
-6.79397e-53
-2.38126e-50
4.23817e-53
-3.09588e-49
6.91073e-52
-3.91223e-48
9.30677e-51
-4.78427e-47
1.21581e-49
-5.67256e-46
1.54454e-48
-6.47878e-45
1.89907e-47
-7.15831e-44
2.26729e-46
-7.56861e-43
2.61001e-45
-7.72766e-42
2.92174e-44
-7.47302e-41
3.15802e-43
-6.97635e-40
3.38874e-42
-6.0542e-39
3.64263e-41
-5.08363e-38
4.21203e-40
-3.79579e-37
5.23492e-39
-2.74788e-36
7.01582e-38
-1.51983e-35
8.93787e-37
-8.10221e-35
1.00457e-35
8.48739e-35
-3.5831e-37
-1.07907e-34
4.53061e-37
-7.92681e-36
7.94938e-38
-7.66939e-37
1.52609e-38
-5.6254e-38
2.04912e-39
-2.98292e-39
2.75934e-40
-8.59984e-41
3.21904e-41
6.0903e-42
3.68052e-42
1.43085e-42
3.87027e-43
1.89986e-43
3.94975e-44
2.09279e-44
3.79785e-45
2.14367e-45
3.50723e-46
1.91351e-46
2.81074e-47
1.73725e-47
1.95645e-48
1.05232e-47
7.50123e-49
1.04432e-47
6.3033e-49
4.91429e-48
1.66451e-48
7.82927e-48
1.44908e-48
1.31646e-49
-3.58564e-49
-7.10074e-48
-7.18718e-49
-2.11215e-48
-2.17371e-49
-5.78227e-49
-5.68075e-50
-1.09901e-49
-1.07814e-50
-1.91289e-50
-1.8507e-51
-2.82134e-51
-2.74507e-52
-3.86282e-52
-6.8646e-53
-4.71309e-53
-4.37049e-52
4.36242e-54
-5.7603e-51
1.39267e-52
-7.44603e-50
1.91842e-51
-9.34705e-49
2.56196e-50
-1.13496e-47
3.32124e-49
-1.33478e-46
4.18335e-48
-1.51131e-45
5.09714e-47
-1.65275e-44
6.0212e-46
-1.72849e-43
6.84769e-45
-1.74105e-42
7.53531e-44
-1.65985e-41
7.93067e-43
-1.52028e-40
8.07326e-42
-1.29377e-39
7.79564e-41
-1.05458e-38
7.32766e-40
-7.64634e-38
6.48075e-39
-5.23429e-37
5.69165e-38
-2.74735e-36
4.57481e-37
-1.25629e-35
3.61169e-36
2.1656e-35
4.2517e-37
-6.13381e-36
-5.4658e-37
-4.61401e-36
-1.01405e-37
-4.36008e-37
-2.04375e-38
-2.83962e-38
-2.90086e-39
-5.75802e-40
-4.13112e-40
1.49276e-40
-5.11496e-41
3.41732e-41
-6.20373e-42
4.86922e-42
-6.92911e-43
6.10963e-43
-7.50281e-44
6.9063e-44
-7.6571e-45
7.4106e-45
-7.55666e-46
7.46916e-46
-7.13552e-47
7.23212e-47
-6.53044e-48
7.33377e-48
-5.30414e-49
1.34618e-48
-4.79673e-51
4.10121e-49
1.13307e-49
5.74085e-49
1.01777e-49
1.00755e-50
-2.51124e-50
-5.16244e-49
-5.06019e-50
-1.54652e-49
-1.54047e-50
-4.25546e-50
-4.04342e-51
-8.13087e-51
-7.7096e-52
-1.42083e-51
-1.32786e-52
-2.10366e-52
-1.96618e-53
-2.88531e-53
-3.51961e-54
-3.01891e-54
-1.17771e-53
7.78373e-54
-1.50481e-52
1.15691e-52
-1.91555e-51
1.58992e-51
-2.36196e-50
2.12685e-50
-2.80939e-49
2.76232e-49
-3.22387e-48
3.48667e-48
-3.5475e-47
4.25796e-47
-3.74787e-46
5.0431e-46
-3.76338e-45
5.7517e-45
-3.60432e-44
6.35081e-44
-3.23372e-43
6.70922e-43
-2.74017e-42
6.86296e-42
-2.11719e-41
6.66547e-41
-1.51892e-40
6.31899e-40
-9.35597e-40
5.65336e-39
-5.156e-39
5.05178e-38
-2.04506e-38
4.14939e-37
-6.49434e-38
3.35753e-36
2.06174e-35
3.86154e-37
-5.91937e-36
-6.03177e-37
-1.04521e-36
-1.20291e-37
6.95323e-38
-2.73147e-38
3.51187e-38
-4.32664e-39
8.37271e-39
-6.87187e-40
1.31925e-39
-9.36237e-41
1.89049e-40
-1.23651e-41
2.36708e-41
-1.48766e-42
2.81922e-42
-1.7196e-43
3.10764e-43
-1.8593e-44
3.28411e-44
-1.93094e-45
3.27998e-45
-1.90332e-46
3.1518e-46
-1.80639e-47
2.89857e-47
-1.63874e-48
2.61771e-48
-1.41049e-49
2.44141e-49
-4.13349e-51
5.81356e-50
6.00343e-51
2.13679e-51
-1.78901e-51
-3.61556e-50
-3.47364e-51
-1.09293e-50
-1.06209e-51
-3.02198e-51
-2.797e-52
-5.80234e-52
-5.35278e-53
-1.01742e-52
-9.128e-54
-1.51185e-53
3.3725e-55
-2.12331e-54
2.38306e-53
-8.79928e-55
3.29186e-52
-8.971e-54
4.39302e-51
-1.25516e-52
5.69234e-50
-1.71464e-51
7.16546e-49
-2.27947e-50
8.72906e-48
-2.94067e-49
1.03058e-46
-3.68353e-48
1.17223e-45
-4.46104e-47
1.28893e-44
-5.23207e-46
1.35671e-43
-5.90089e-45
1.37712e-42
-6.41932e-44
1.32507e-41
-6.64043e-43
1.22711e-40
-6.53547e-42
1.05837e-39
-5.85904e-41
8.76259e-39
-4.57446e-40
6.47436e-38
-2.28902e-39
4.52008e-37
7.83039e-39
2.4284e-36
4.41881e-37
1.12984e-35
6.9158e-36
6.96156e-35
-1.22006e-36
3.19783e-36
-3.61432e-37
-1.99518e-36
-1.47085e-37
1.10589e-36
-5.32782e-38
2.48346e-37
-1.09022e-38
4.82816e-38
-2.07052e-39
6.88001e-39
-3.16665e-40
9.3568e-40
-4.55251e-41
1.12572e-40
-5.81987e-42
1.30552e-41
-7.0524e-43
1.40614e-42
-7.90703e-44
1.46006e-43
-8.45822e-45
1.43541e-44
-8.53835e-46
1.36176e-45
-8.26777e-47
1.236e-46
-7.64139e-48
1.08512e-47
-6.80298e-49
9.18653e-49
-5.7733e-50
7.78639e-50
-4.35937e-51
6.00327e-51
-4.99161e-52
-2.02093e-51
-2.60415e-52
-7.17907e-52
-7.31846e-53
-2.06109e-52
-1.89056e-53
-4.00336e-53
-3.5808e-54
-7.05878e-54
-1.58664e-55
-1.06619e-54
6.66698e-54
-3.51829e-55
9.57633e-53
-3.07886e-54
1.32151e-51
-4.42493e-53
1.77601e-50
-6.23917e-52
2.31829e-49
-8.56385e-51
2.9418e-48
-1.14448e-49
3.61364e-47
-1.48477e-48
4.30642e-46
-1.87167e-47
4.94541e-45
-2.28222e-46
5.49897e-44
-2.69791e-45
5.85388e-43
-3.06911e-44
6.02609e-42
-3.37456e-43
5.87843e-41
-3.53499e-42
5.54835e-40
-3.54482e-41
4.87022e-39
-3.27169e-40
4.15343e-38
-2.71912e-39
3.14939e-37
-1.65296e-38
2.3351e-36
-1.66961e-38
1.31968e-35
1.80648e-36
7.36195e-35
3.50327e-35
4.39286e-34
-1.21232e-35
-9.78817e-35
-9.65285e-36
3.37029e-36
-2.03979e-36
1.47513e-36
-4.6944e-37
2.49607e-37
-7.74546e-38
4.283e-38
-1.26534e-38
5.81898e-39
-1.76299e-39
7.75128e-40
-2.36788e-40
9.22825e-41
-2.88466e-41
1.06468e-41
-3.36874e-42
1.14235e-42
-3.67158e-43
1.18311e-43
-3.83998e-44
1.1604e-44
-3.80694e-45
1.09882e-45
-3.63226e-46
9.95571e-47
-3.31659e-47
8.72492e-48
-2.92381e-48
7.36551e-49
-2.48214e-49
6.04436e-50
-2.0381e-50
4.77484e-51
-1.63097e-51
2.02647e-52
-1.40337e-52
-2.27456e-53
-1.40199e-53
-1.196e-53
-1.91425e-54
-2.5585e-54
-3.63061e-55
-4.66239e-55
-1.2106e-54
-7.32275e-56
-1.68682e-53
-5.25929e-56
-2.37755e-52
-6.37805e-55
-3.26342e-51
-9.23546e-54
-4.36058e-50
-1.30724e-52
-5.65685e-49
-1.80159e-51
-7.12868e-48
-2.41832e-50
-8.69162e-47
-3.15213e-49
-1.02702e-45
-3.99443e-48
-1.16866e-44
-4.89839e-47
-1.28565e-43
-5.83071e-46
-1.35301e-42
-6.69081e-45
-1.37359e-41
-7.46191e-44
-1.32027e-40
-8.03248e-43
-1.22286e-39
-8.57535e-42
-1.05252e-38
-9.16795e-41
-8.73539e-38
-1.05412e-39
-6.44639e-37
-1.3062e-38
-4.57617e-36
-1.75025e-37
-2.48545e-35
-2.23806e-36
-1.2688e-34
-2.53085e-35
-2.16795e-34
-2.40704e-34
2.33732e-34
-1.76427e-35
1.62538e-35
-1.24865e-35
4.85022e-37
-2.69971e-36
-1.00168e-37
-4.05055e-37
-3.39701e-38
-6.37274e-38
-5.4218e-39
-8.49851e-39
-7.66922e-40
-1.11365e-39
-9.30923e-41
-1.32288e-40
-1.08036e-41
-1.51862e-41
-1.16044e-42
-1.62789e-42
-1.20131e-43
-1.68129e-43
-1.1773e-44
-1.64715e-44
-1.11385e-45
-1.55652e-45
-1.00837e-46
-1.40851e-46
-8.83033e-48
-1.23226e-47
-7.44851e-49
-1.03883e-48
-6.09023e-50
-8.48809e-50
-4.82043e-51
-6.71356e-51
-3.81321e-52
-5.16746e-52
-3.0938e-53
-3.87809e-53
-2.92109e-54
-2.88367e-54
-3.18724e-55
-3.65405e-55
-3.95903e-56
-2.28148e-54
1.62466e-56
-3.27988e-53
3.26521e-55
-4.63197e-52
4.84906e-54
-6.3688e-51
7.0105e-53
-8.5261e-50
9.88591e-52
-1.1083e-48
1.35702e-50
-1.39981e-47
1.81363e-49
-1.71083e-46
2.35302e-48
-2.0271e-45
2.96628e-47
-2.31346e-44
3.6169e-46
-2.55385e-43
4.27496e-45
-2.69755e-42
4.85971e-44
-2.75098e-41
5.33097e-43
-2.65679e-40
5.54411e-42
-2.47619e-39
5.44206e-41
-2.14499e-38
4.70683e-40
-1.79705e-37
3.14566e-39
-1.33851e-36
1.13091e-39
-9.66035e-36
-4.42799e-37
-5.32669e-35
-1.03155e-35
-2.82819e-34
-1.52462e-34
-1.67761e-33
-1.26721e-35
1.30096e-34
-8.94937e-36
1.73421e-35
-1.9068e-36
4.4704e-37
-4.43002e-37
-1.2816e-37
-7.3756e-38
-4.08835e-38
-1.21403e-38
-6.51432e-39
-1.70119e-39
-9.22888e-40
-2.29524e-40
-1.12523e-40
-2.80606e-41
-1.31066e-41
-3.28638e-42
-1.41326e-42
-3.59022e-43
-1.46757e-43
-3.76227e-44
-1.44249e-44
-3.73609e-45
-1.36809e-45
-3.56977e-46
-1.24138e-46
-3.26355e-47
-1.08922e-47
-2.88018e-48
-9.20472e-49
-2.44778e-49
-7.5397e-50
-2.01428e-50
-5.97588e-51
-1.60359e-51
-4.6082e-52
-1.23997e-52
-3.46083e-53
-9.31689e-54
-2.56157e-54
-6.80507e-55
-1.88594e-55
-4.69699e-59
-1.35959e-56
7.25909e-55
8.94255e-57
1.05653e-53
1.52622e-55
1.49291e-52
2.26349e-54
2.05384e-51
3.27277e-53
2.75127e-50
4.61566e-52
3.57886e-49
6.33652e-51
4.52383e-48
8.46959e-50
5.53392e-47
1.09896e-48
6.56375e-46
1.3855e-47
7.49964e-45
1.68944e-46
8.29011e-44
1.99659e-45
8.76985e-43
2.26829e-44
8.95966e-42
2.48306e-43
8.67042e-41
2.56517e-42
8.10085e-40
2.46759e-41
7.03657e-39
1.99571e-40
5.915e-38
9.75845e-40
4.42181e-37
-1.00962e-38
3.20528e-36
-4.05467e-37
1.77512e-35
-7.96771e-36
9.47384e-35
-1.12067e-34
-1.19537e-33
-1.83339e-36
1.99224e-35
4.27898e-37
1.15453e-35
5.68782e-39
1.00088e-36
-2.26294e-38
4.87186e-38
-6.57211e-39
-3.04377e-39
-1.46656e-39
-1.03384e-39
-2.43498e-40
-1.75926e-40
-3.68941e-41
-2.31469e-41
-4.88257e-42
-2.80142e-42
-6.06766e-43
-3.10274e-43
-6.9318e-44
-3.28323e-44
-7.52502e-45
-3.27995e-45
-7.68604e-46
-3.15166e-46
-7.51471e-47
-2.89357e-47
-7.00165e-48
-2.56423e-48
-6.27787e-49
-2.18659e-49
-5.40706e-50
-1.80516e-50
-4.50014e-51
-1.44102e-51
-3.61733e-52
-1.11706e-52
-2.81937e-53
-8.40986e-54
-2.13065e-54
-6.1796e-55
-1.47016e-55
-4.45203e-56
1.36993e-55
-4.43302e-57
2.19955e-54
-1.99988e-56
3.18675e-53
-3.00129e-55
4.50217e-52
-4.45e-54
6.19268e-51
-6.4372e-53
8.29388e-50
-9.08327e-52
1.07862e-48
-1.2477e-50
1.36307e-47
-1.6688e-49
1.66692e-46
-2.16691e-48
1.97645e-45
-2.73427e-47
2.25739e-44
-3.33767e-46
2.4942e-43
-3.95082e-45
2.6372e-42
-4.50187e-44
2.69268e-41
-4.96319e-43
2.604e-40
-5.2258e-42
2.43102e-39
-5.30367e-41
2.10975e-38
-5.04658e-40
1.77168e-37
-4.54726e-39
1.32295e-36
-3.56982e-38
9.57969e-36
-2.32542e-37
5.29961e-35
-5.62453e-37
2.82772e-34
1.07923e-35
2.52283e-34
-2.05773e-37
1.30583e-34
1.63547e-37
1.05163e-35
2.90637e-38
1.07223e-36
2.51439e-39
8.26772e-38
-1.20902e-40
4.82793e-39
-1.02886e-40
1.77296e-40
-2.30322e-41
-6.19445e-42
-4.0618e-42
-2.29036e-42
-5.87911e-43
-3.57214e-43
-7.76218e-44
-4.44186e-44
-9.26541e-45
-5.05071e-45
-1.03968e-45
-5.31137e-46
-1.09017e-46
-5.31206e-47
-1.08851e-47
-5.03731e-48
-1.03209e-48
-4.58529e-49
-9.38953e-50
-3.99917e-50
-8.18843e-51
-3.3655e-51
-6.88773e-52
-2.73121e-52
-5.58802e-53
-2.14702e-53
-4.39019e-54
-1.63526e-54
-3.34373e-55
-1.21111e-55
-2.81122e-56
-8.76074e-57
-5.34281e-56
-1.06948e-57
-7.66932e-55
-7.08848e-57
-1.11074e-53
-1.06937e-55
-1.56952e-52
-1.58564e-54
-2.1593e-51
-2.2938e-53
-2.89268e-50
-3.23683e-52
-3.76302e-49
-4.44639e-51
-4.75695e-48
-5.94741e-50
-5.8196e-47
-7.72316e-49
-6.90333e-46
-9.7463e-48
-7.88867e-45
-1.18991e-46
-8.72155e-44
-1.40904e-45
-9.22809e-43
-1.60718e-44
-9.43014e-42
-1.77699e-43
-9.12852e-41
-1.88675e-42
-8.53214e-40
-1.95972e-41
-7.41478e-39
-1.98272e-40
-6.2367e-38
-2.06256e-39
-4.66583e-37
-2.2145e-38
-3.38525e-36
-2.57606e-37
-1.87685e-35
-2.94315e-36
-1.00293e-34
-3.12493e-35
-2.55686e-34
-3.36039e-37
2.04671e-35
4.13978e-37
8.05566e-36
6.73353e-38
9.07393e-37
1.22133e-38
7.86682e-38
1.51982e-39
6.13192e-39
1.88679e-40
4.59276e-40
1.9877e-41
3.79017e-41
2.02086e-42
3.37575e-42
1.83593e-43
3.24567e-43
1.5678e-44
3.10467e-44
1.19281e-45
2.94364e-45
8.0553e-47
2.68461e-46
4.28435e-48
2.37922e-47
1.11243e-49
2.02938e-48
-1.3255e-50
1.67996e-49
-2.94303e-51
1.34452e-50
-3.8162e-52
1.04593e-51
-4.08304e-53
7.89572e-53
-3.91272e-54
5.80397e-54
-3.47569e-55
4.15173e-55
-2.96996e-56
2.89673e-56
-1.18075e-56
2.05476e-57
-1.44362e-55
1.48131e-57
-2.14099e-54
2.0979e-56
-3.10181e-53
3.18213e-55
-4.38371e-52
4.71757e-54
-6.03196e-51
6.82296e-53
-8.08184e-50
9.62553e-52
-1.05149e-48
1.32187e-50
-1.32938e-47
1.76752e-49
-1.62651e-46
2.29438e-48
-1.92957e-45
2.89404e-47
-2.20508e-44
3.53096e-46
-2.43799e-43
4.17627e-45
-2.5795e-42
4.75093e-44
-2.63594e-41
5.21592e-43
-2.55123e-40
5.42862e-42
-2.38438e-39
5.33246e-41
-2.07146e-38
4.61104e-40
-1.74237e-37
3.06993e-39
-1.30299e-36
6.0251e-40
-9.46314e-36
-4.46842e-37
-5.24812e-35
-1.03768e-35
-2.82116e-34
-1.53854e-34
-1.705e-33
1.15569e-36
2.32409e-35
-1.48863e-36
1.69443e-35
-2.79435e-37
1.73794e-36
-5.56608e-38
1.38628e-37
-7.81597e-39
9.483e-39
-1.09357e-39
6.2056e-40
-1.33098e-40
4.7404e-41
-1.58427e-41
4.483e-42
-1.73791e-42
4.99186e-43
-1.84831e-43
5.60157e-44
-1.85418e-44
6.15187e-45
-1.79917e-45
6.3824e-46
-1.6669e-46
6.34057e-47
-1.49477e-47
5.98744e-48
-1.28944e-48
5.43359e-49
-1.07846e-49
4.72765e-50
-8.72083e-51
3.97076e-51
-6.85107e-52
3.21709e-52
-5.22268e-53
2.52517e-53
-3.87541e-54
1.92029e-54
-2.79403e-55
1.41888e-55
-1.30785e-56
1.02172e-56
9.93091e-56
1.14636e-57
1.49436e-54
6.77624e-57
2.1647e-53
1.02009e-55
3.05859e-52
1.51097e-54
4.20747e-51
2.18335e-53
5.63554e-50
3.07725e-52
7.32946e-49
4.22172e-51
9.26269e-48
5.63888e-50
1.13275e-46
7.31127e-49
1.34307e-45
9.21025e-48
1.53387e-44
1.12216e-46
1.69464e-43
1.32498e-45
1.79148e-42
1.50402e-44
1.82884e-41
1.64515e-43
1.76802e-40
1.69955e-42
1.65013e-39
1.63828e-41
1.43128e-38
1.33974e-40
1.20167e-37
7.00448e-40
8.96748e-37
-5.33357e-39
6.49874e-36
-2.40426e-37
3.59578e-35
-4.77732e-36
1.93033e-34
-6.68481e-35
-7.02227e-34
1.27928e-36
3.80441e-34
-1.75074e-36
2.7198e-35
-3.21238e-37
2.79137e-36
-6.6328e-38
2.35207e-37
-9.64199e-39
1.93171e-38
-1.4191e-39
1.71667e-39
-1.81218e-40
1.85378e-40
-2.26822e-41
2.13315e-41
-2.60786e-42
2.52096e-42
-2.90265e-43
2.82426e-43
-3.03847e-44
3.04668e-44
-3.06991e-45
3.10172e-45
-2.95417e-46
3.03082e-46
-2.74582e-47
2.8231e-47
-2.44999e-48
2.53317e-48
-2.11563e-49
2.18359e-49
-1.76321e-50
1.81983e-50
-1.42537e-51
1.46489e-51
-1.11647e-52
1.14361e-52
-8.50094e-54
8.65704e-54
-6.28549e-55
6.37203e-55
-3.74098e-56
4.55591e-56
1.17232e-55
2.28355e-57
1.78613e-54
-1.37268e-56
2.58544e-53