/*--------------------------------*- C++ -*----------------------------------*\
| =========                 |                                                 |
| \\      /  F ield         | OpenFOAM: The Open Source CFD Toolbox           |
|  \\    /   O peration     | Version:  2.4.0                                 |
|   \\  /    A nd           | Web:      www.OpenFOAM.org                      |
|    \\/     M anipulation  |                                                 |
\*---------------------------------------------------------------------------*/
FoamFile
{
    version     2.0;
    format      ascii;
    class       surfaceScalarField;
    location    "0.9";
    object      phi;
}
// * * * * * * * * * * * * * * * * * * * * * * * * * * * * * * * * * * * * * //

dimensions      [0 3 -1 0 0 0 0];

internalField   nonuniform List<scalar> 
3781
(
4.68725e-39
1.28452e-40
2.35542e-38
6.57802e-40
3.43296e-38
3.86029e-39
5.98678e-37
2.75288e-39
1.12401e-40
-7.41496e-39
-5.97905e-37
-7.39674e-39
-2.89264e-38
2.89865e-39
4.84398e-39
4.64701e-39
5.39348e-38
5.19493e-39
6.37837e-37
6.8886e-39
6.2763e-37
-3.84148e-39
-5.35282e-37
-1.01678e-38
2.90643e-38
2.75281e-39
6.04165e-37
6.61251e-39
3.51005e-38
-2.90133e-39
2.36783e-38
-3.8816e-39
4.74463e-39
-6.59745e-40
6.59589e-40
-1.27653e-40
9.95778e-41
-1.85711e-41
1.28599e-41
-2.69435e-42
1.65596e-42
-3.43287e-43
1.94839e-43
-4.22767e-44
2.25611e-44
-4.79844e-45
4.82001e-45
-4.70317e-46
2.27833e-44
4.75633e-46
1.96983e-43
4.84713e-45
1.67582e-42
4.27464e-44
1.30319e-41
3.47555e-43
1.01034e-40
2.73172e-42
6.70748e-40
1.8871e-41
4.83095e-39
1.29995e-40
2.4235e-38
6.75536e-40
3.91597e-38
3.98999e-39
6.22899e-37
3.428e-39
3.91597e-38
-3.428e-39
2.4235e-38
-3.98999e-39
4.83095e-39
-6.75537e-40
6.70748e-40
-1.29995e-40
1.01034e-40
-1.88723e-41
1.30285e-41
-2.74072e-42
1.65785e-42
-4.08338e-43
1.27277e-43
-3.94232e-43
-2.09038e-43
-1.86872e-42
-7.0376e-42
1.83597e-39
-1.54952e-40
8.69342e-39
-1.10099e-39
4.38289e-38
-6.00432e-39
6.77767e-38
-4.11819e-39
5.39571e-41
1.14458e-38
-6.74229e-38
1.14197e-38
-4.16589e-38
-4.33933e-39
1.91877e-39
-7.30556e-39
5.10166e-38
-8.24003e-39
1.13517e-37
-1.05417e-38
7.8638e-38
5.97769e-39
-1.30315e-38
1.55639e-38
1.0915e-38
-4.11811e-39
6.99862e-38
-1.01219e-38
4.41815e-38
4.34281e-39
8.75379e-39
6.03453e-39
1.87145e-39
1.1067e-39
2.99173e-40
1.95187e-40
4.74405e-41
2.64991e-41
6.53784e-42
3.48525e-42
8.70999e-43
4.11067e-43
1.06323e-43
4.70458e-44
1.26151e-44
5.03529e-45
2.75889e-45
4.70876e-46
1.27443e-44
-4.75765e-46
1.07547e-43
-5.08195e-45
8.82065e-43
-4.75162e-44
6.63139e-42
-4.15575e-43
4.82025e-41
-3.52716e-42
3.04815e-40
-2.6862e-41
1.91214e-39
-1.98251e-40
9.00377e-39
-1.12962e-39
4.57407e-38
-6.20239e-39
7.67732e-38
-5.24732e-39
4.57407e-38
5.24732e-39
9.00377e-39
6.20239e-39
1.91214e-39
1.12962e-39
3.04814e-40
1.9825e-40
4.81973e-41
2.68543e-41
6.60122e-42
3.47015e-42
7.22704e-43
2.5631e-44
-5.16091e-43
-2.24122e-42
-2.08259e-42
-1.23353e-41
-4.75332e-41
5.03546e-40
-6.76566e-41
1.92955e-39
-4.44078e-40
7.54776e-39
-1.9896e-39
1.09609e-38
-1.23717e-39
1.85965e-41
3.76777e-39
-1.0849e-38
3.75551e-39
-6.94328e-39
-1.33433e-39
5.27804e-40
-2.52041e-39
9.08082e-39
-2.89257e-39
1.90334e-38
-3.41005e-39
1.34931e-38
1.97676e-39
-8.61962e-40
5.00486e-39
2.55074e-39
-1.23706e-39
1.15785e-38
-3.22611e-39
7.65899e-39
1.33605e-39
1.94963e-39
2.00367e-39
5.11639e-40
4.46416e-40
9.29538e-41
8.50044e-41
1.62134e-41
1.25001e-41
2.38959e-42
1.72692e-42
3.34962e-43
2.13632e-43
4.25114e-44
2.53106e-44
5.20356e-45
2.79739e-45
1.166e-45
2.67605e-46
5.25911e-45
-2.70509e-46
4.30276e-44
-2.82454e-45
3.3951e-43
-2.55779e-44
2.42683e-42
-2.16128e-43
1.65047e-41
-1.74937e-42
9.49981e-41
-1.26878e-41
5.25377e-40
-8.65121e-41
2.0257e-39
-4.57139e-40
8.07287e-39
-2.07575e-39
1.29838e-38
-1.69399e-39
8.07287e-39
1.69399e-39
2.0257e-39
2.07575e-39
5.25377e-40
4.57138e-40
9.49929e-41
8.65065e-41
1.64698e-41
1.26421e-41
2.22122e-42
1.41091e-42
-7.60363e-43
-2.13126e-42
-4.32272e-42
-1.39776e-41
-1.48852e-41
-7.69683e-41
-3.03306e-40
1.00859e-40
-2.7284e-41
3.15538e-40
-1.38159e-40
9.98059e-40
-5.64207e-40
1.37177e-39
-3.35474e-40
4.56317e-42
1.06477e-39
-1.34624e-39
1.06063e-39
-8.74949e-40
-3.66978e-40
1.06132e-40
-7.26406e-40
1.23745e-39
-8.38741e-40
2.4751e-39
-9.57566e-40
1.80961e-39
5.57968e-40
6.87619e-41
1.39985e-39
4.4241e-40
-3.34962e-40
1.49793e-39
-8.97167e-40
1.02333e-39
3.67597e-40
3.20246e-40
5.67296e-40
1.02202e-40
1.36437e-40
2.08718e-41
2.77851e-41
3.94288e-42
4.31785e-42
6.15492e-43
6.2482e-43
8.98913e-44
8.02837e-44
1.17852e-44
9.80994e-45
1.47937e-45
1.11205e-45
3.38284e-46
1.08401e-46
1.49571e-45
-1.09618e-46
1.19346e-44
-1.12325e-45
9.11798e-44
-9.91822e-45
6.25777e-43
-8.12736e-44
4.02065e-42
-6.33491e-43
2.13945e-41
-4.38808e-42
1.05506e-40
-2.83274e-41
3.36994e-40
-1.4011e-40
1.10343e-39
-5.90602e-40
1.70804e-39
-4.74992e-40
1.10343e-39
4.74992e-40
3.36993e-40
5.90602e-40
1.05502e-40
1.40107e-40
2.13623e-41
2.82972e-41
3.79909e-42
4.14038e-42
-6.972e-43
-1.22631e-42
-7.09522e-42
-1.30309e-41
-2.90143e-41
-7.97916e-41
-1.00745e-40
-4.49175e-40
-1.82182e-39
1.75854e-41
-4.08913e-41
4.43524e-41
-4.86496e-41
1.01569e-40
-1.33638e-40
1.27284e-40
-7.25993e-41
1.03012e-42
2.29281e-40
-1.21939e-40
2.28799e-40
-7.881e-41
-7.73135e-41
1.91182e-41
-1.59659e-40
1.32082e-40
-1.85317e-40
2.47286e-40
-2.05629e-40
1.93194e-40
1.20342e-40
4.1221e-41
2.99465e-40
6.70671e-41
-6.94602e-41
1.50196e-40
-1.9088e-40
1.06357e-40
7.74574e-41
4.48426e-41
1.22725e-40
1.82753e-41
3.14853e-41
4.15676e-42
6.75752e-42
8.45868e-43
1.10011e-42
1.3868e-43
1.65206e-43
2.10045e-44
2.19037e-44
2.83124e-45
2.74342e-45
3.63347e-46
3.17526e-46
8.45415e-47
3.14236e-47
3.67484e-46
-3.17862e-47
2.8685e-45
-3.2082e-46
2.13201e-44
-2.7748e-45
1.41143e-43
-2.21858e-44
8.63957e-43
-1.67624e-43
4.27371e-42
-1.1192e-42
1.89768e-41
-6.90019e-42
4.81113e-41
-3.24147e-41
1.20196e-40
-1.28339e-40
1.7506e-40
-1.01853e-40
1.20196e-40
1.01853e-40
4.81082e-41
1.28337e-40
1.89514e-41
3.23978e-41
4.084e-42
6.75199e-42
-4.60045e-43
-1.14866e-43
-7.88984e-42
-9.24881e-42
-4.44286e-41
-6.77531e-41
-1.83435e-40
-4.23228e-40
-6.50545e-40
-2.45775e-39
-1.03532e-38
-4.97357e-43
-2.15431e-40
9.13799e-42
-1.09603e-40
9.53421e-42
-9.67408e-41
8.24658e-42
-3.1725e-41
4.89707e-43
4.1086e-41
-6.06986e-42
4.42954e-41
-3.59657e-42
-1.50937e-41
3.14404e-42
-3.1787e-41
1.0817e-41
-3.69897e-41
1.75108e-41
-4.03277e-41
1.62691e-41
2.36228e-41
9.64989e-42
5.85467e-41
9.38434e-42
-1.32899e-41
1.09191e-41
-3.71525e-41
8.25791e-42
1.50165e-41
5.7008e-42
2.41552e-41
2.98245e-42
6.46004e-42
7.42457e-43
1.44966e-42
1.60302e-43
2.44999e-43
2.73492e-44
3.79844e-44
4.26652e-45
5.16954e-45
5.88576e-46
6.61353e-46
7.69521e-47
7.78966e-47
1.81733e-47
7.8091e-48
7.7851e-47
-7.90135e-48
5.96572e-46
-7.87252e-47
4.33319e-45
-6.69152e-46
2.78597e-44
-5.2386e-45
1.63962e-43
-3.8566e-44
7.65387e-43
-2.4949e-43
3.11422e-42
-1.48232e-42
6.27437e-42
-6.66573e-42
1.04428e-41
-2.53494e-41
1.33143e-41
-1.99505e-41
1.0441e-41
1.99497e-41
6.25787e-42
2.53417e-41
2.9779e-42
6.59302e-42
-2.67324e-43
8.37472e-43
-7.15843e-42
-5.20466e-42
-4.52328e-41
-4.23997e-41
-2.56172e-40
-3.13389e-40
-1.08531e-39
-2.0238e-39
-3.94626e-39
-1.22385e-38
-5.42317e-38
-1.55215e-41
-1.20633e-39
2.70481e-41
-5.76259e-40
1.4861e-41
-4.16519e-40
7.19462e-42
-1.04342e-40
1.9249e-42
-1.45024e-41
9.19067e-43
4.15541e-42
5.09618e-43
-3.209e-42
5.08786e-43
-5.75638e-42
5.30435e-43
-6.63372e-42
3.06086e-43
-7.1148e-42
9.22869e-43
4.16889e-42
1.79788e-42
1.02978e-41
1.29788e-42
-2.29243e-42
2.7337e-43
-6.50842e-42
3.14467e-43
2.62235e-42
7.11453e-43
4.27365e-42
4.6903e-43
1.18362e-42
1.24974e-43
2.75481e-43
2.82383e-44
4.8041e-44
4.96914e-45
7.64759e-45
7.93896e-46
1.06401e-45
1.11612e-46
1.38574e-46
1.48208e-47
1.65681e-47
3.54409e-48
1.67941e-48
1.49977e-47
-1.69966e-48
1.13169e-46
-1.67482e-47
8.06708e-46
-1.40252e-46
5.06571e-45
-1.07868e-45
2.8917e-44
-7.76918e-45
1.2912e-43
-4.89626e-44
4.92074e-43
-2.82032e-43
8.06583e-43
-1.22373e-42
6.4842e-43
-4.49897e-42
4.57905e-43
-3.51538e-42
6.39397e-43
3.51221e-42
7.26186e-43
4.47018e-42
-1.80739e-43
9.49016e-43
-5.0479e-42
-2.19146e-42
-3.73969e-41
-2.12858e-41
-2.36733e-40
-1.70227e-40
-1.37798e-39
-1.3018e-39
-6.03062e-39
-8.80632e-39
-2.26628e-38
-5.64373e-38
-2.68161e-37
-2.80296e-41
-6.43417e-39
1.99872e-40
-2.9448e-39
9.66584e-41
-2.12251e-39
4.56681e-41
-5.11688e-40
1.11103e-41
-1.07893e-40
2.59453e-42
-1.66232e-41
5.64271e-43
-3.16854e-42
1.39474e-43
-1.31913e-42
-1.67816e-44
-1.15832e-42
-1.69367e-43
-1.18604e-42
-5.47236e-45
6.91067e-43
2.93517e-43
1.70478e-42
1.79275e-43
-3.73696e-43
-8.54069e-44
-1.07384e-42
-4.02625e-44
4.31993e-43
8.99725e-44
7.10592e-43
7.07841e-44
2.02082e-43
1.97988e-44
4.84609e-44
4.62582e-45
8.66782e-45
8.33986e-46
1.41025e-45
1.35814e-46
1.99811e-46
1.93957e-47
2.64154e-47
2.60933e-48
3.19824e-48
6.30655e-49
3.27239e-49
2.64105e-48
-3.31253e-49
1.96723e-47
-3.23366e-48
1.38065e-46
-2.67422e-47
8.5073e-46
-2.02639e-46
4.74159e-45
-1.43339e-45
2.04915e-44
-8.84052e-45
7.45332e-44
-4.96655e-44
1.04832e-43
-2.09293e-43
8.63063e-45
-7.50057e-43
-7.96259e-44
-5.83572e-43
-2.96034e-44
5.74414e-43
-2.39956e-43
6.65931e-43
-2.85446e-42
-6.04257e-43
-2.29271e-41
-7.40218e-42
-1.69656e-40
-6.58121e-41
-1.10294e-39
-5.43197e-40
-6.63348e-39
-4.36365e-39
-3.0185e-38
-3.16659e-38
-1.17786e-37
-2.2056e-37
-1.1599e-36
5.17958e-40
-3.12414e-38
1.54304e-39
-1.40936e-38
6.33501e-40
-1.03113e-38
2.67847e-40
-2.38195e-39
6.16283e-41
-4.89326e-40
1.28307e-41
-7.74377e-41
2.15765e-42
-1.15797e-41
3.38222e-43
-1.66177e-42
3.25318e-44
-3.63325e-43
-3.61092e-44
-2.05585e-43
-1.14524e-44
1.05259e-43
4.45143e-44
2.64618e-43
2.48627e-44
-5.72861e-44
-2.22656e-44
-1.66336e-43
-1.2764e-44
6.68242e-44
1.17158e-44
1.10822e-43
1.03498e-44
3.22313e-44
2.99249e-45
7.91846e-45
7.16613e-46
1.44619e-45
1.31659e-46
2.39534e-46
2.17733e-47
3.44568e-47
3.14988e-48
4.61254e-48
4.28407e-49
5.6445e-49
1.04479e-49
5.82146e-50
4.33693e-49
-5.89398e-50
3.19561e-48
-5.70805e-49
2.21417e-47
-4.67072e-48
1.34366e-46
-3.49558e-47
7.35032e-46
-2.43575e-46
3.10035e-45
-1.47601e-45
1.09152e-44
-8.12361e-45
1.38036e-44
-3.3443e-44
-7.1807e-45
-1.17388e-43
-3.74189e-44
-9.24528e-44
-1.5022e-43
7.15311e-44
-1.29505e-42
-7.7529e-44
-1.13143e-41
-1.88482e-42
-9.06796e-41
-1.79654e-41
-6.89295e-40
-1.64475e-40
-4.63074e-39
-1.43096e-39
-2.90329e-38
-1.24878e-38
-1.385e-37
-1.01411e-37
-5.72764e-37
-8.05168e-37
-4.87915e-36
8.56595e-39
-1.45032e-37
1.17474e-38
-5.72407e-38
3.97931e-39
-4.05945e-38
1.43438e-39
-8.94524e-39
3.07798e-40
-1.75741e-39
6.08866e-41
-2.68834e-40
9.80534e-42
-3.87061e-41
1.47229e-42
-4.98942e-42
1.94645e-43
-6.36538e-43
1.78529e-44
-9.94412e-44
4.42381e-46
1.02372e-44
6.64866e-45
4.28727e-44
3.42851e-45
-9.40979e-45
-3.7716e-45
-2.73525e-44
-2.25868e-45
1.09754e-44
1.53999e-45
1.83177e-44
1.4544e-45
5.42043e-45
4.30567e-46
1.35655e-45
1.05051e-46
2.51769e-46
1.95984e-47
4.22805e-47
3.28259e-48
6.15452e-48
4.80119e-49
8.32005e-49
6.59126e-50
1.02679e-49
1.62e-50
1.06569e-50
6.67272e-50
-1.07913e-50
4.87071e-49
-1.0385e-49
3.33748e-48
-8.42665e-49
1.99889e-47
-6.24531e-48
1.07562e-46
-4.30102e-47
4.43523e-46
-2.57106e-46
1.50218e-45
-1.39295e-45
1.45713e-45
-5.63402e-45
-5.51934e-45
-1.94776e-44
-4.68001e-44
-1.57143e-44
-4.18413e-43
6.63025e-45
-3.83835e-42
-6.8681e-44
-3.39017e-41
-9.17745e-43
-2.78187e-40
-9.61558e-42
-2.17976e-39
-1.05997e-40
-1.51979e-38
-1.22871e-39
-9.96632e-38
-1.5211e-38
-5.02055e-37
-1.78726e-37
-2.20737e-36
-1.87429e-36
-1.47867e-35
1.48833e-37
-8.57147e-37
1.43928e-37
-3.48251e-37
4.12758e-38
-2.51317e-37
1.26668e-38
-4.86661e-38
2.485e-39
-9.0335e-39
4.63054e-40
-1.30746e-39
7.13863e-41
-1.81982e-40
1.03892e-41
-2.26434e-41
1.35689e-42
-2.7138e-42
1.67126e-43
-3.05072e-43
1.89602e-44
-3.09245e-44
3.04586e-45
4.8424e-46
7.02933e-46
-1.12516e-45
-5.70555e-46
-2.39718e-45
-3.59264e-46
9.47868e-46
2.13484e-46
1.59393e-45
2.09787e-46
4.80146e-46
6.31407e-47
1.23104e-46
1.56127e-47
2.33057e-47
2.9458e-48
3.98883e-48
4.98033e-49
5.90066e-49
7.34363e-50
8.09266e-50
1.01506e-50
1.01125e-50
2.50636e-51
1.05998e-51
1.02398e-50
-1.07283e-51
7.40111e-50
-1.02199e-50
4.99974e-49
-8.18483e-50
2.92348e-48
-5.97163e-49
1.49888e-47
-4.03607e-48
5.31699e-47
-2.35212e-47
7.9825e-47
-1.22946e-46
-1.31834e-45
-4.57742e-46
-1.71296e-44
-1.21959e-45
-1.74176e-43
3.88429e-45
-1.71961e-42
5.60476e-44
-1.6161e-41
5.51385e-43
-1.46477e-40
5.22148e-42
-1.2376e-39
4.4522e-41
-1.009e-38
3.11815e-40
-7.34808e-38
8.90383e-40
-5.15323e-37
-2.10277e-38
-2.78422e-36
-5.62022e-37
-1.42787e-35
-8.2407e-36
-8.77563e-35
2.04326e-36
-1.18212e-36
1.59476e-36
-1.0339e-36
3.51673e-37
-2.88145e-37
8.3103e-38
-4.61637e-38
1.42722e-38
-7.75684e-39
2.40489e-39
-1.07625e-39
3.4777e-40
-1.47046e-40
4.82427e-41
-1.81221e-41
6.08967e-42
-2.16048e-42
7.34862e-43
-2.40411e-43
8.28926e-44
-2.55895e-44
9.03922e-45
-2.2723e-45
9.58052e-46
-3.27593e-46
4.22283e-47
-2.36847e-46
-2.12583e-47
8.32115e-47
1.74952e-47
1.4373e-46
1.6828e-47
4.38432e-47
5.1261e-48
1.13545e-47
1.28614e-48
2.16984e-48
2.45826e-49
3.74048e-49
4.20619e-50
5.56894e-50
6.26757e-51
7.67494e-51
8.74746e-52
9.63111e-52
2.19571e-52
1.01275e-52
9.07841e-52
-1.01995e-52
6.65302e-51
-9.66704e-52
4.65379e-50
-7.67179e-51
2.97642e-49
-5.51562e-50
1.88359e-48
-3.62923e-49
1.19076e-47
-1.99454e-48
9.24335e-47
-8.95683e-48
8.35784e-46
-1.36647e-47
8.57382e-45
2.11784e-46
8.66723e-44
3.89018e-45
8.41544e-43
4.25858e-44
7.7487e-42
4.28598e-43
6.83426e-41
4.10194e-42
5.6258e-40
3.55564e-41
4.41482e-39
2.60426e-40
3.10963e-38
1.00117e-39
2.05642e-37
-1.16119e-38
1.06767e-36
-3.76325e-37
4.87264e-36
-5.80449e-36
-6.46111e-35
3.84942e-35
-1.92263e-35
2.64462e-36
-1.30865e-36
2.03593e-36
4.86885e-38
4.50945e-37
2.76098e-38
7.04383e-38
6.70596e-39
1.14249e-38
1.04077e-39
1.58238e-39
1.48496e-40
2.14163e-40
1.85513e-41
2.63737e-41
2.21855e-42
3.12925e-42
2.46553e-43
3.47403e-43
2.63874e-44
3.71039e-44
2.70308e-45
3.76522e-45
2.55827e-46
3.63678e-46
7.05705e-48
3.19727e-47
9.21976e-48
4.46381e-48
1.2043e-47
1.63754e-48
3.67085e-48
4.44248e-49
9.59693e-49
1.08534e-49
1.85299e-49
2.06942e-50
3.22538e-50
3.54926e-51
4.84396e-51
5.31047e-52
6.72651e-52
7.49683e-53
8.49722e-53
2.66197e-53
8.93314e-54
1.84443e-52
-9.74022e-54
1.98511e-51
-9.4979e-53
2.22701e-50
-8.04134e-52
2.54973e-49
-6.54266e-51
2.95772e-48
-5.37947e-50
3.40037e-47
-4.52065e-49
3.84684e-46
-4.18393e-48
4.21987e-45
-4.14903e-47
4.48534e-44
-4.428e-46
4.57071e-43
-4.73756e-45
4.48713e-42
-5.00934e-44
4.18286e-41
-5.04438e-43
3.74821e-40
-4.79481e-42
3.13744e-39
-4.05762e-41
2.52089e-38
-2.73382e-40
1.81937e-37
-4.66479e-40
1.25313e-36
2.65119e-38
6.77584e-36
6.37377e-37
3.40532e-35
9.21741e-36
9.86752e-35
2.21374e-36
-8.90037e-37
1.37388e-36
-6.67059e-37
3.08383e-37
1.39364e-37
7.43033e-38
3.92111e-38
1.30005e-38
8.36965e-39
2.22405e-39
1.26634e-39
3.2531e-40
1.79462e-40
4.55313e-41
2.24701e-41
5.78729e-42
2.69687e-42
7.02348e-43
3.01046e-43
7.96063e-44
3.23267e-44
8.63985e-45
3.29259e-45
8.89367e-46
3.22349e-46
8.76473e-47
2.88979e-47
8.13825e-48
3.32477e-48
8.64167e-49
1.21261e-48
1.72382e-49
3.22771e-49
3.85297e-50
8.15286e-50
8.85246e-51
1.56713e-50
1.66511e-51
2.73058e-51
2.85098e-52
4.11431e-52
4.27717e-53
5.73139e-53
6.0736e-54
7.26074e-54
2.33329e-54
7.29363e-55
1.7171e-53
-1.34939e-54
1.8847e-52
-1.5302e-53
2.13646e-51
-1.66287e-52
2.45099e-50
-1.8515e-51
2.82302e-49
-2.12737e-50
3.20547e-48
-2.47712e-49
3.56237e-47
-2.90352e-48
3.83066e-46
-3.35516e-47
3.97363e-45
-3.80354e-46
3.94673e-44
-4.16848e-45
3.75177e-43
-4.41212e-44
3.38268e-42
-4.43027e-43
2.89695e-41
-4.17476e-42
2.31695e-40
-3.44068e-41
1.73594e-39
-2.09205e-40
1.17296e-38
2.31726e-40
7.1202e-38
3.4595e-38
3.485e-37
7.25501e-37
1.2486e-36
1.00422e-35
1.03674e-34
2.55776e-37
-6.76324e-37
7.43112e-39
-1.18734e-37
1.35439e-38
1.72909e-38
6.94481e-39
6.71541e-39
1.64575e-39
1.57358e-39
3.4275e-40
2.5552e-40
5.63324e-41
3.77858e-41
8.56384e-42
4.91133e-42
1.15295e-42
6.05539e-43
1.46151e-43
6.92283e-44
1.71225e-44
7.5735e-45
1.90768e-45
7.83941e-46
2.00506e-46
7.79167e-47
2.01523e-47
7.30253e-48
1.92314e-48
7.2401e-49
1.86936e-49
1.35209e-49
2.39456e-50
2.87259e-50
3.8841e-51
6.70619e-51
7.59684e-52
1.2656e-51
1.35267e-52
2.19655e-52
2.26746e-53
3.3152e-53
3.36373e-54
4.63208e-54
2.57983e-55
5.92276e-55
-2.913e-54
1.10211e-55
-4.10031e-53
6.18845e-55
-5.49339e-52
8.93323e-54
-7.15019e-51
1.25129e-52
-9.02925e-50
1.6882e-51
-1.10718e-48
2.20088e-50
-1.31402e-47
2.77422e-49
-1.51182e-46
3.38738e-48
-1.67674e-45
3.99665e-47
-1.799e-44
4.56643e-46
-1.84931e-43
5.02442e-45
-1.83547e-42
5.34804e-44
-1.7287e-41
5.45682e-43
-1.57073e-40
5.40303e-42
-1.33067e-39
5.13638e-41
-1.08862e-38
4.85521e-40
-7.95513e-38
4.52226e-39
-5.6049e-37
4.39151e-38
-3.04034e-36
4.14587e-37
-1.56916e-35
3.76934e-36
2.6721e-35
2.37014e-38
-1.31299e-37
-1.0547e-38
-2.41357e-38
-1.18286e-39
9.70015e-40
3.63239e-40
8.52961e-40
1.4901e-40
2.41396e-40
3.86228e-41
4.3142e-41
7.08355e-42
6.85343e-42
1.15379e-42
9.38346e-43
1.62929e-43
1.20505e-43
2.138e-44
1.42173e-44
2.57334e-45
1.59493e-45
2.9281e-46
1.68437e-46
3.13159e-47
1.70275e-47
3.19483e-48
1.63335e-48
3.09695e-49
1.55651e-49
2.95893e-50
1.92894e-50
3.1877e-51
2.97482e-51
4.10015e-52
5.80494e-52
6.65259e-53
1.03081e-52
1.08854e-53
1.7464e-53
1.75738e-54
2.61543e-54
2.65062e-55
3.64918e-55
1.36829e-55
5.25385e-56
1.41171e-54
9.5495e-56
1.90579e-53
1.29174e-54
2.51277e-52
1.80682e-53
3.22394e-51
2.46473e-52
4.01487e-50
3.27217e-51
4.85203e-49
4.22805e-50
5.67022e-48
5.30404e-49
6.41095e-47
6.46353e-48
6.97488e-46
7.62187e-47
7.31619e-45
8.71171e-46
7.33345e-44
9.59324e-45
7.059e-43
1.02216e-43
6.42356e-42
1.04406e-42
5.58831e-41
1.03432e-41
4.50823e-40
9.8235e-41
3.45574e-39
9.24274e-40
2.34973e-38
8.51086e-39
1.49189e-37
8.11103e-38
7.25625e-37
7.46913e-37
3.04828e-36
6.65304e-36
4.61865e-35
2.77537e-39
-1.67334e-38
-2.60648e-39
-3.48802e-39
-4.73035e-40
-8.47664e-41
-2.47135e-41
7.58924e-41
8.7005e-42
2.73692e-41
3.67325e-42
5.40405e-42
7.89992e-43
9.16448e-43
1.40824e-43
1.31508e-43
2.1049e-44
1.74903e-44
2.87704e-45
2.12128e-45
3.56947e-46
2.43181e-46
4.15877e-47
2.61445e-47
4.53245e-48
2.68224e-48
4.69695e-49
2.61213e-49
4.61821e-50
2.47887e-50
4.40646e-51
2.62395e-51
4.36795e-52
3.24016e-52
4.7707e-53
5.16696e-53
6.33348e-54
8.35942e-54
9.13074e-55
1.35646e-54
1.4042e-55
1.99779e-55
6.41802e-56
2.77078e-56
6.41964e-55
4.35904e-57
8.93167e-54
1.28775e-56
1.21692e-52
1.79535e-55
1.6144e-51
2.52293e-54
2.08479e-50
3.45945e-53
2.61443e-49
4.61936e-52
3.1844e-48
6.00794e-51
3.75385e-47
7.59113e-50
4.28719e-46
9.32732e-49
4.71756e-45
1.11049e-47
5.01565e-44
1.28588e-46
5.10536e-43
1.44551e-45
5.00764e-42
1.60629e-44
4.65666e-41
1.80397e-43
4.16434e-40
2.20062e-42
3.46866e-39
3.077e-41
2.77476e-38
4.99463e-40
1.98165e-37
8.51833e-39
1.34987e-36
1.3918e-37
7.09466e-36
2.00131e-36
3.43934e-35
2.39806e-35
2.22794e-34
3.02509e-40
-2.37522e-39
-3.49924e-40
-5.1566e-40
-7.31297e-41
-4.43947e-41
-8.25055e-42
3.46213e-42
5.81942e-44
2.58378e-42
2.83294e-43
5.95305e-43
7.48456e-44
1.10172e-43
1.46651e-44
1.67095e-44
2.31688e-45
2.31391e-45
3.28941e-46
2.89222e-46
4.19716e-47
3.39467e-47
4.9967e-48
3.7188e-48
5.54084e-49
3.8742e-49
5.82398e-50
3.82538e-50
5.79776e-51
3.64571e-51
5.55918e-52
3.58928e-52
5.3349e-53
3.8278e-53
5.35169e-54
4.98782e-54
6.14156e-55
7.07328e-55
7.82694e-56
1.06419e-55
1.52658e-56
1.50965e-56
6.7714e-56
1.45205e-57
9.49852e-55
-8.84221e-57
1.32821e-53
-1.33294e-55
1.81198e-52
-1.90797e-54
2.40703e-51
-2.66401e-53
3.11291e-50
-3.62792e-52
3.90985e-49
-4.81004e-51
4.77056e-48
-6.20827e-50
5.63426e-47
-7.78022e-49
6.44858e-46
-9.4709e-48
7.1124e-45
-1.11539e-46
7.58235e-44
-1.27235e-45
7.74066e-43
-1.3956e-44
7.61964e-42
-1.4726e-43
7.11284e-41
-1.46486e-42
6.39238e-40
-1.34765e-41
5.35245e-39
-1.02718e-40
4.31365e-38
-4.23625e-40
3.10419e-37
6.31967e-39
2.14196e-36
2.12619e-37
1.13969e-35
3.87155e-36
5.6944e-35
5.12232e-35
5.14094e-34
3.6498e-41
-2.78317e-40
-4.40159e-41
-6.41857e-41
-9.86371e-42
-8.13363e-42
-1.49045e-42
-2.33611e-43
-1.01679e-43
1.91535e-43
1.38764e-44
5.54799e-44
6.05012e-45
1.13445e-44
1.37419e-45
1.82188e-45
2.3352e-46
2.62403e-46
3.47277e-47
3.37585e-47
4.5762e-48
4.051e-48
5.5808e-49
4.51706e-49
6.30546e-50
4.77384e-50
6.72793e-51
4.77273e-51
6.78217e-52
4.582e-52
6.55246e-53
4.38714e-53
6.20624e-54
4.34107e-54
5.9402e-55
4.904e-55
6.14957e-56
6.11432e-56
6.94929e-57
8.37915e-57
9.91037e-58
1.09273e-57
1.98211e-57
-4.80718e-58
2.68683e-56
-9.43641e-57
3.7585e-55
-1.38498e-55
5.1313e-54
-1.98204e-54
6.82194e-53
-2.76744e-53
8.83047e-52
-3.76878e-52
1.11019e-50
-4.99678e-51
1.35606e-49
-6.44924e-50
1.60346e-48
-8.08213e-49
1.83766e-47
-9.8383e-48
2.02976e-46
-1.15864e-46
2.16751e-45
-1.32169e-45
2.21679e-44
-1.44975e-44
2.18689e-43
-1.52994e-43
2.04622e-42
-1.52259e-42
1.84437e-41
-1.4028e-41
1.54912e-40
-1.07472e-40
1.25373e-39
-4.58096e-40
9.06066e-39
6.19483e-39
6.29433e-38
2.1431e-37
3.37013e-37
3.92366e-36
1.70789e-36
5.20146e-35
5.22796e-34
3.97123e-42
-3.30265e-41
-4.74338e-42
-7.85055e-42
-1.12487e-42
-1.26923e-42
-1.97493e-43
-1.02118e-43
-1.97077e-44
7.80545e-45
-2.12513e-46
4.35049e-45
3.93714e-46
1.04665e-45
1.13118e-46
1.8138e-46
2.10391e-47
2.7407e-47
3.29455e-48
3.64392e-48
4.49132e-49
4.48121e-49
5.61332e-50
5.09237e-50
6.46213e-51
5.4638e-51
6.99786e-52
5.53165e-52
7.14071e-53
5.35753e-53
6.95834e-54
5.07574e-54
6.57191e-55
4.8249e-55
6.14965e-56
4.94414e-56
5.96549e-57
5.51453e-57
3.19149e-58
6.84294e-58
-4.42728e-57
8.8365e-59
-6.59677e-56
2.44611e-59
-9.45654e-55
2.03785e-58
-1.32261e-53
3.03775e-57
-1.80435e-52
4.46066e-56
-2.39688e-51
6.39904e-55
-3.09979e-50
8.96984e-54
-3.89335e-49
1.22587e-52
-4.7504e-48
1.63477e-51
-5.61041e-47
2.12061e-50
-6.42122e-46
2.68212e-49
-7.08214e-45
3.29637e-48
-7.54997e-44
3.97156e-47
-7.70745e-43
4.72021e-46
-7.5868e-42
5.77413e-45
-7.08197e-41
7.68226e-44
-6.36448e-40
1.20693e-42
-5.32889e-39
2.20301e-41
-4.29459e-38
4.3152e-40
-3.09038e-37
8.1528e-39
-2.13256e-36
1.3952e-37
-1.13474e-35
2.05151e-36
-5.67218e-35
2.48324e-35
2.32409e-34
4.29317e-43
-3.61434e-42
-4.97264e-43
-8.91656e-43
-1.2258e-43
-1.67849e-43
-2.39985e-44
-1.82359e-44
-2.89154e-45
-5.71513e-46
-1.93488e-46
2.59633e-46
1.39132e-47
8.51179e-47
7.93106e-48
1.6398e-47
1.71219e-48
2.62775e-48
2.87941e-49
3.62831e-49
4.09565e-50
4.58432e-50
5.26925e-51
5.31724e-51
6.19564e-52
5.79737e-52
6.81894e-53
5.94691e-53
7.04864e-54
5.81669e-54
6.93505e-55
5.50076e-55
6.56415e-56
5.09373e-56
6.0805e-57
4.94163e-57
5.54867e-58
8.32174e-58
-1.63363e-58
1.65883e-58
-3.24961e-57
6.02525e-59
-4.77006e-56
3.4846e-58
-6.8297e-55
5.11734e-57
-9.54102e-54
7.49711e-56
-1.29995e-52
1.07337e-54
-1.72448e-51
1.49943e-53
-2.22683e-50
2.04308e-52
-2.79233e-49
2.71041e-51
-3.40078e-48
3.50066e-50
-4.00848e-47
4.39036e-49
-4.5774e-46
5.34927e-48
-5.0361e-45
6.3073e-47
-5.35331e-44
7.20876e-46
-5.44783e-43
7.9382e-45
-5.34212e-42
8.45919e-44
-4.96606e-41
8.64469e-43
-4.4393e-40
8.57646e-42
-3.69591e-39
8.17685e-41
-2.95494e-38
7.7604e-40
-2.1089e-37
7.26959e-39
-1.43565e-36
7.10522e-38
-7.53978e-36
6.74989e-37
-3.65458e-35
6.16327e-36
-3.02609e-35
4.38062e-35
2.1651e-34
2.99708e-44
-1.50523e-42
-3.41727e-44
-3.80447e-43
-8.61588e-45
-8.02808e-44
-1.76514e-45
-1.02981e-44
-2.2698e-46
-8.31295e-46
-1.8938e-47
1.05659e-47
8.63584e-50
2.09482e-47
4.2579e-49
4.9533e-48
1.03498e-49
8.68553e-49
1.82519e-50
1.26192e-49
2.66513e-51
1.6494e-50
3.48809e-52
1.96001e-51
4.15186e-53
2.17655e-52
4.61186e-54
2.26467e-53
4.80224e-55
2.23133e-54
4.75422e-56
2.06949e-55
4.57942e-57
1.30751e-56
4.74575e-58
1.56406e-57
2.2837e-59
5.56886e-57
-8.07266e-59
1.79524e-57
-8.5866e-58
5.30363e-58
-1.24229e-56
3.02964e-58
-1.77285e-55
2.97583e-57
-2.46832e-54
4.32615e-56
-3.35048e-53
6.1832e-55
-4.42641e-52
8.62221e-54
-5.68947e-51
1.17255e-52
-7.09805e-50
1.55226e-51
-8.59467e-49
2.00013e-50
-1.00655e-47
2.50208e-49
-1.14087e-46
3.03981e-48
-1.2448e-45
3.57293e-47
-1.31022e-44
4.06855e-46
-1.31866e-43
4.46131e-45
-1.27562e-42
4.72776e-44
-1.16777e-41
4.79401e-43
-1.02351e-40
4.69195e-42
-8.3333e-40
4.35903e-41
-6.46104e-39
3.92576e-40
-4.45615e-38
3.32811e-39
-2.87598e-37
2.77739e-38
-1.42729e-36
2.12102e-37
-6.10272e-36
1.57179e-36
-4.92474e-36
8.89664e-36
4.1136e-35
-1.29768e-43
-1.10513e-41
1.45658e-43
-2.73637e-42
3.73691e-44
-5.25203e-43
7.98064e-45
-5.91954e-44
1.09064e-45
-2.6064e-45
1.08498e-46
6.34171e-46
4.483e-48
2.33276e-46
-1.05144e-48
4.61902e-47
-3.35739e-49
7.49773e-48
-6.4284e-50
1.04272e-48
-9.76752e-51
1.3237e-49
-1.30966e-51
1.54033e-50
-1.58443e-52
1.68349e-51
-1.781e-53
1.72926e-52
-1.87102e-54
1.67992e-53
-1.85816e-55
1.51172e-54
-1.65075e-56
4.31729e-56
-6.42217e-58
1.01076e-56
-3.50503e-58
8.85054e-56
-4.90972e-58
2.87157e-56
-3.50412e-58
8.29594e-57
-2.88924e-57
1.73929e-57
-4.05791e-56
1.07713e-57
-5.6386e-55
1.1249e-56
-7.63744e-54
1.59649e-55
-1.00645e-52
2.21914e-54
-1.28973e-51
3.00718e-53
-1.60333e-50
3.96541e-52
-1.93322e-49
5.08688e-51
-2.25284e-48
6.33207e-50
-2.53839e-47
7.64933e-49
-2.75026e-46
8.93393e-48
-2.87042e-45
1.00979e-46
-2.85972e-44
1.09804e-45
-2.73223e-43
1.15191e-44
-2.46331e-42
1.15443e-43
-2.11832e-41
1.11285e-42
-1.68374e-40
1.01427e-41
-1.26692e-39
8.88097e-41
-8.40819e-39
7.23162e-40
-5.18868e-38
5.67097e-39
-2.43146e-37
3.97213e-38
-9.87435e-37
2.64284e-37
-7.88916e-37
1.32258e-36
5.53656e-36
-1.3483e-42
-1.03984e-40
1.55511e-42
-2.48924e-41
3.85924e-43
-4.17516e-42
7.68622e-44
-3.70388e-43
9.54453e-45
1.30386e-44
7.22168e-46
1.16464e-44
-2.2333e-47
2.9627e-45
-2.13442e-47
5.24046e-46
-4.85929e-48
8.00861e-47
-8.34668e-49
1.07222e-47
-1.20054e-49
1.32504e-48
-1.55552e-50
1.51108e-49
-1.83786e-51
1.62573e-50
-2.03006e-52
1.64809e-51
-2.10379e-53
1.57681e-52
-2.06487e-54
1.37142e-53
-1.76063e-55
-2.32151e-55
-1.78297e-57
8.01608e-56
-5.00592e-57
1.3868e-54
-7.81467e-57
4.49636e-55
-2.58124e-57
1.29725e-55
-1.18775e-57
2.63546e-56
-7.07053e-57
4.99701e-57
-9.60991e-56
3.23978e-57
-1.29783e-54
3.55074e-56
-1.70506e-53
4.91238e-55
-2.17737e-52
6.64271e-54
-2.69613e-51
8.73784e-53
-3.23605e-50
1.11761e-51
-3.75157e-49
1.3864e-50
-4.20156e-48
1.66794e-49
-4.52084e-47
1.93871e-48
-4.67972e-46
2.1787e-47
-4.61821e-45
2.35303e-46
-4.36165e-44
2.44812e-45
-3.87944e-43
2.4291e-44
-3.27998e-42
2.31229e-43
-2.55474e-41
2.07401e-42
-1.87288e-40
1.77731e-41
-1.20475e-39
1.40478e-40
-7.14569e-39
1.05674e-39
-3.2001e-38
6.97986e-39
-1.23208e-37
4.33283e-38
-9.68884e-38
1.98619e-37
7.97779e-37
-1.25551e-41
-8.86964e-40
1.49157e-41
-2.06279e-40
3.56746e-42
-2.80416e-41
6.43478e-43
-1.31686e-42
6.81433e-44
4.7686e-43
2.10278e-45
1.53456e-43
-9.80542e-46
3.2417e-44
-3.13877e-46
5.28446e-45
-6.02027e-47
7.68107e-46
-9.5716e-48
9.94118e-47
-1.3165e-48
1.19816e-47
-1.65525e-49
1.34038e-48
-1.91367e-50
1.42021e-49
-2.07914e-51
1.42068e-50
-2.12629e-52
1.33227e-51
-2.06106e-53
1.0889e-52
-1.63349e-54
-1.26869e-53
8.05433e-56
4.49961e-55
-7.1362e-56
2.12466e-53
-1.25067e-55
6.87221e-54
-4.08383e-56
1.97939e-54
-1.12964e-56
4.00843e-55
-3.31436e-57
7.33456e-56
-1.49268e-56
1.19174e-56
-1.957e-55
8.8947e-57
-2.56283e-54
1.01159e-55
-3.26183e-53
1.36799e-54
-4.02335e-52
1.8034e-53
-4.80758e-51
2.31118e-52
-5.54458e-50
2.87319e-51
-6.17263e-49
3.46266e-50
-6.59509e-48
4.03312e-49
-6.77161e-47
4.53833e-48
-6.61772e-46
4.91116e-47
-6.17982e-45
5.1123e-46
-5.42013e-44
5.08205e-45
-4.50877e-43
4.83253e-44
-3.43844e-42
4.34182e-43
-2.46084e-41
3.70326e-42
-1.53053e-40
2.93102e-41
-8.7668e-40
2.17644e-40
-3.70196e-39
1.44483e-39
-1.36588e-38
8.76164e-39
-6.63737e-39
4.27015e-38
1.72496e-37
-1.15544e-40
-7.56025e-39
1.38705e-40
-1.66235e-39
3.14459e-41
-1.61876e-40
4.94585e-42
5.71031e-42
3.87173e-43
7.04204e-42
-2.86021e-44
1.69493e-42
-1.64012e-44
3.19588e-43
-3.90468e-45
4.89429e-44
-6.76064e-46
6.821e-45
-1.01607e-46
8.56314e-46
-1.34782e-47
1.00841e-46
-1.6514e-48
1.10747e-47
-1.87226e-49
1.15604e-48
-2.00324e-50
1.14011e-49
-2.02267e-51
1.03746e-50
-1.93397e-52
7.45479e-52
-1.33905e-53
-2.6815e-52
2.37153e-54
7.92323e-56
-1.02964e-54
3.17258e-52
-1.95746e-54
1.02242e-52
-6.38554e-55
2.938e-53
-1.75277e-55
5.9309e-54
-3.52062e-56
1.08249e-54
-4.98799e-57
1.68654e-55
1.87191e-56
3.24682e-56
2.76541e-55
1.22267e-55
3.77198e-54
1.64871e-54
4.99953e-53
2.22196e-53
6.41169e-52
2.91354e-52
7.97714e-51
3.71415e-51
9.5593e-50
4.59232e-50
1.10858e-48
5.5055e-49
1.23026e-47
6.37756e-48
1.31762e-46
7.14029e-47
1.33739e-45
7.68485e-46
1.30623e-44
7.96347e-45
1.1902e-43
7.87405e-44
1.04066e-42
7.46316e-43
8.25162e-42
6.6717e-42
6.26412e-41
5.69075e-41
4.06042e-40
4.4853e-40
2.51202e-39
3.35747e-39
1.11736e-38
2.21416e-38
4.66509e-38
1.36677e-37
6.2599e-37
-9.70754e-40
-5.45108e-38
1.12026e-39
-1.1532e-38
2.38255e-40
-5.05143e-40
2.94403e-41
1.88915e-40
6.14999e-43
7.64352e-41
-7.26941e-43
1.55063e-41
-2.08298e-43
2.66606e-42
-4.19926e-44
3.85611e-43
-6.72726e-45
5.15684e-44
-9.63406e-46
6.27912e-45
-1.23639e-46
7.22046e-46
-1.47817e-47
7.78117e-47
-1.64445e-48
7.99762e-48
-1.73318e-49
7.75322e-49
-1.72735e-50
6.63441e-50
-1.62334e-51
3.11395e-51
-8.03899e-53
-4.5888e-51
4.75221e-53
-5.56313e-53
-1.49025e-53
4.6201e-51
-2.9947e-53
1.48179e-51
-9.7459e-54
4.24526e-52
-2.67011e-54
8.53832e-53
-5.34824e-55
1.55438e-53
-7.54365e-56
2.40943e-54
2.75572e-55
3.76531e-55
3.92389e-54
5.06959e-55
5.16107e-53
6.43466e-54
6.59532e-52
8.71429e-53
8.17277e-51
1.14943e-51
9.81777e-50
1.47503e-50
1.13922e-48
1.83692e-49
1.27722e-47
2.22029e-48
1.37584e-46
2.59492e-47
1.42611e-45
2.93547e-46
1.4094e-44
3.19525e-45
1.33344e-43
3.35625e-44
1.18826e-42
3.36884e-43
1.00702e-41
3.25393e-42
7.86359e-41
2.97332e-41
5.78363e-40
2.61251e-40
3.73319e-39
2.13764e-39
2.2238e-38
1.68744e-38
9.99892e-38
1.1927e-37
3.86531e-37
8.01525e-37
4.05821e-36
-8.8331e-39
-4.22132e-37
8.39195e-39
-7.96644e-38
1.57114e-39
1.42516e-39
1.09787e-40
2.34885e-39
-2.03203e-41
6.96682e-40
-1.01587e-41
1.26292e-40
-2.26031e-42
2.02236e-41
-4.09453e-43
2.78214e-42
-6.17463e-44
3.58529e-43
-8.48998e-45