/*--------------------------------*- C++ -*----------------------------------*\
| =========                 |                                                 |
| \\      /  F ield         | OpenFOAM: The Open Source CFD Toolbox           |
|  \\    /   O peration     | Version:  2.4.0                                 |
|   \\  /    A nd           | Web:      www.OpenFOAM.org                      |
|    \\/     M anipulation  |                                                 |
\*---------------------------------------------------------------------------*/
FoamFile
{
    version     2.0;
    format      ascii;
    class       volVectorField;
    location    "0.9";
    object      U;
}
// * * * * * * * * * * * * * * * * * * * * * * * * * * * * * * * * * * * * * //

dimensions      [0 1 -1 0 0 0 0];

internalField   nonuniform List<vector> 
1935
(
(1.53111e-35 5.04645e-36 0)
(1.1846e-34 3.07442e-35 0)
(5.53763e-34 1.79899e-34 0)
(4.59667e-33 1.27555e-34 0)
(4.14791e-33 -3.44552e-34 0)
(-4.1447e-33 -3.43789e-34 0)
(-4.5778e-33 1.33927e-34 0)
(-4.18419e-34 2.16357e-34 0)
(5.56663e-34 2.42282e-34 0)
(5.15329e-33 3.19523e-34 0)
(8.87952e-33 -1.79116e-34 0)
(6.91328e-34 -4.72105e-34 0)
(-3.45593e-33 1.27553e-34 0)
(4.28541e-33 3.07432e-34 0)
(4.61577e-33 -1.34034e-34 0)
(5.56663e-34 -1.80787e-34 0)
(1.19102e-34 -3.08687e-35 0)
(1.63071e-35 -5.61253e-36 0)
(2.51716e-36 -7.76712e-37 0)
(3.24739e-37 -1.06688e-37 0)
(4.22748e-38 -1.30209e-38 0)
(4.98522e-39 -1.54564e-39 0)
(5.75363e-40 -1.70372e-40 0)
(6.85178e-41 -1.63355e-41 0)
(6.90424e-41 1.65131e-41 0)
(5.81181e-40 1.72029e-40 0)
(5.0406e-39 1.56196e-39 0)
(4.27863e-38 1.31729e-38 0)
(3.29137e-37 1.0806e-37 0)
(2.55432e-36 7.88151e-37 0)
(1.65885e-35 5.70586e-36 0)
(1.21284e-34 3.15356e-35 0)
(5.70368e-34 1.85597e-34 0)
(4.71791e-33 1.59075e-34 0)
(4.71791e-33 -1.59075e-34 0)
(5.70368e-34 -1.85597e-34 0)
(1.21284e-34 -3.15356e-35 0)
(1.65885e-35 -5.70586e-36 0)
(2.55432e-36 -7.88154e-37 0)
(3.29122e-37 -1.08085e-37 0)
(4.27031e-38 -1.33399e-38 0)
(4.61111e-39 -2.50801e-39 0)
(-9.78689e-40 -5.09491e-39 0)
(-4.98713e-39 -1.81272e-38 0)
(6.6722e-36 -2.27444e-36 0)
(4.57254e-35 -1.65488e-35 0)
(2.0238e-34 -9.65939e-35 0)
(1.04847e-33 -6.81478e-35 0)
(8.85836e-34 1.84537e-34 0)
(-8.84296e-34 1.84167e-34 0)
(-1.03991e-33 -7.13743e-35 0)
(-1.49006e-34 -1.16075e-34 0)
(2.03767e-34 -1.30175e-34 0)
(1.25222e-33 -1.70866e-34 0)
(1.98748e-33 9.62169e-35 0)
(2.56799e-34 2.52684e-34 0)
(-6.28709e-34 -6.81469e-35 0)
(9.40218e-34 -1.64734e-34 0)
(1.05715e-33 7.14227e-35 0)
(2.03767e-34 9.70221e-35 0)
(4.60615e-35 1.66314e-35 0)
(7.34874e-36 2.85776e-36 0)
(1.18948e-36 3.75948e-37 0)
(1.64442e-37 4.8544e-38 0)
(2.21442e-38 5.61278e-39 0)
(2.71357e-39 6.3331e-40 0)
(3.20815e-40 6.68219e-41 0)
(3.92138e-41 6.18604e-42 0)
(3.95232e-41 -6.24892e-42 0)
(3.24191e-40 -6.7428e-41 0)
(2.74514e-39 -6.39489e-40 0)
(2.24285e-38 -5.67268e-39 0)
(1.66828e-37 -4.91091e-38 0)
(1.20884e-36 -3.80914e-37 0)
(7.49039e-36 -2.90056e-36 0)
(4.7081e-35 -1.69575e-35 0)
(2.09882e-34 -9.94927e-35 0)
(1.09553e-33 -8.50988e-35 0)
(1.09553e-33 8.50988e-35 0)
(2.09882e-34 9.94927e-35 0)
(4.7081e-35 1.69575e-35 0)
(7.49039e-36 2.90056e-36 0)
(1.20882e-36 3.8089e-37 0)
(1.66699e-37 4.894e-38 0)
(2.16958e-38 4.52793e-39 0)
(-1.07025e-39 -5.99953e-39 0)
(-1.36587e-38 -3.52321e-38 0)
(-4.57772e-38 -1.33745e-37 0)
(2.11968e-36 -1.06942e-36 0)
(1.22512e-35 -7.21056e-36 0)
(4.2817e-35 -3.29795e-35 0)
(1.72592e-34 -2.07228e-35 0)
(1.40225e-34 6.24635e-35 0)
(-1.39694e-34 6.2271e-35 0)
(-1.69931e-34 -2.22686e-35 0)
(-2.82262e-35 -4.15793e-35 0)
(4.32894e-35 -4.76449e-35 0)
(2.15872e-34 -5.66233e-35 0)
(3.27332e-34 3.27819e-35 0)
(5.77528e-35 8.31856e-35 0)
(-8.23527e-35 -2.0722e-35 0)
(1.5515e-34 -5.36965e-35 0)
(1.75294e-34 2.22952e-35 0)
(4.32894e-35 3.32031e-35 0)
(1.2352e-35 7.2512e-36 0)
(2.24984e-36 1.35439e-36 0)
(4.03003e-37 1.95903e-37 0)
(5.97191e-38 2.66679e-38 0)
(8.47832e-39 3.25807e-39 0)
(1.08132e-39 3.81941e-40 0)
(1.31936e-40 4.18398e-41 0)
(1.6571e-41 3.97549e-42 0)
(1.6706e-41 -4.0181e-42 0)
(1.33386e-40 -4.22405e-41 0)
(1.0946e-39 -3.85912e-40 0)
(8.59482e-39 -3.29545e-39 0)
(6.06654e-38 -2.7007e-38 0)
(4.1037e-37 -1.9877e-37 0)
(2.30082e-36 -1.37771e-36 0)
(1.26932e-35 -7.41967e-36 0)
(4.51192e-35 -3.43551e-35 0)
(1.85276e-34 -2.81384e-35 0)
(1.85276e-34 2.81384e-35 0)
(4.51192e-35 3.43551e-35 0)
(1.26932e-35 7.41966e-36 0)
(2.3008e-36 1.37769e-36 0)
(4.10241e-37 1.98626e-37 0)
(5.97984e-38 2.5946e-38 0)
(3.59406e-39 -3.97481e-39 0)
(-2.52944e-38 -4.2366e-38 0)
(-9.80735e-38 -2.30965e-37 0)
(-3.26741e-37 -8.92024e-37 0)
(4.80612e-37 -3.9061e-37 0)
(2.39784e-36 -2.37265e-36 0)
(6.60743e-36 -9.95608e-36 0)
(2.18766e-35 -5.97549e-36 0)
(1.7273e-35 1.88452e-35 0)
(-1.71428e-35 1.8773e-35 0)
(-2.12782e-35 -6.5262e-36 0)
(-3.69234e-36 -1.28113e-35 0)
(6.72128e-36 -1.47769e-35 0)
(2.85948e-35 -1.69656e-35 0)
(4.2043e-35 9.87671e-36 0)
(9.60236e-36 2.48194e-35 0)
(-7.63993e-36 -5.97386e-36 0)
(2.02661e-35 -1.5923e-35 0)
(2.24841e-35 6.53675e-36 0)
(6.72128e-36 1.00362e-35 0)
(2.41835e-36 2.38248e-36 0)
(4.98441e-37 4.80012e-37 0)
(9.72284e-38 7.38494e-38 0)
(1.52993e-38 1.05991e-38 0)
(2.26652e-39 1.35211e-39 0)
(2.9893e-40 1.64262e-40 0)
(3.74131e-41 1.85279e-41 0)
(4.80709e-42 1.79944e-42 0)
(4.84733e-42 -1.81949e-42 0)
(3.78395e-41 -1.87131e-41 0)
(3.02767e-40 -1.66059e-40 0)
(2.29945e-39 -1.36861e-39 0)
(1.55599e-38 -1.07444e-38 0)
(9.91873e-38 -7.50332e-38 0)
(5.11399e-37 -4.89222e-37 0)
(2.49968e-36 -2.4454e-36 0)
(7.11793e-36 -1.04396e-35 0)
(2.43732e-35 -8.41791e-36 0)
(2.43732e-35 8.41791e-36 0)
(7.11793e-36 1.04396e-35 0)
(2.49967e-36 2.44539e-36 0)
(5.11288e-37 4.89119e-37 0)
(9.83794e-38 7.41921e-38 0)
(1.00445e-38 4.50143e-39 0)
(-2.99422e-38 -4.20179e-38 0)
(-1.72551e-37 -2.59272e-37 0)
(-6.55502e-37 -1.43001e-36 0)
(-2.2197e-36 -5.65332e-36 0)
(7.29822e-38 -1.9818e-37 0)
(4.28895e-37 -6.08831e-37 0)
(8.36896e-37 -2.21954e-36 0)
(2.06183e-36 -1.26405e-36 0)
(1.57078e-36 4.1326e-36 0)
(-1.54138e-36 4.11546e-36 0)
(-1.93868e-36 -1.39319e-36 0)
(-3.10516e-37 -2.86453e-36 0)
(8.5614e-37 -3.32316e-36 0)
(2.91341e-36 -3.6987e-36 0)
(4.144e-36 2.16426e-36 0)
(1.36965e-36 5.38944e-36 0)
(-1.93225e-37 -1.25464e-36 0)
(2.10728e-36 -3.43784e-36 0)
(2.17923e-36 1.396e-36 0)
(8.56137e-37 2.20612e-36 0)
(4.23645e-37 5.61832e-37 0)
(9.79209e-38 1.19591e-37 0)
(2.07106e-38 1.933e-38 0)
(3.43004e-39 2.88451e-39 0)
(5.27824e-40 3.80414e-40 0)
(7.16335e-41 4.74369e-41 0)
(9.16847e-42 5.4702e-42 0)
(1.20124e-42 5.39858e-43 0)
(1.21153e-42 -5.46057e-43 0)
(9.27626e-42 -5.52663e-42 0)
(7.25892e-41 -4.79761e-41 0)
(5.35874e-40 -3.85274e-40 0)
(3.49227e-39 -2.92634e-39 0)
(2.11646e-38 -1.96618e-38 0)
(1.00805e-37 -1.22084e-37 0)
(4.40782e-37 -5.78182e-37 0)
(9.32286e-37 -2.30562e-36 0)
(2.49805e-36 -1.83244e-36 0)
(2.49805e-36 1.83244e-36 0)
(9.32277e-37 2.30561e-36 0)
(4.40702e-37 5.78119e-37 0)
(1.0016e-37 1.21537e-37 0)
(1.63949e-38 1.51575e-38 0)
(-2.95243e-38 -3.09651e-38 0)
(-1.95647e-37 -2.39189e-37 0)
(-1.07232e-36 -1.46263e-36 0)
(-4.16282e-36 -8.26319e-36 0)
(-1.44034e-35 -3.36616e-35 0)
(-1.4853e-37 -6.84257e-37 0)
(1.34336e-37 -4.41028e-37 0)
(1.26457e-37 -6.64366e-37 0)
(1.45644e-37 -3.02642e-37 0)
(8.97086e-38 8.15281e-37 0)
(-7.57326e-38 8.22035e-37 0)
(-9.74978e-38 -2.75236e-37 0)
(-5.14631e-39 -5.80924e-37 0)
(9.48754e-38 -6.75981e-37 0)
(2.13836e-37 -7.38781e-37 0)
(2.85914e-37 4.32719e-37 0)
(1.78396e-37 1.07303e-36 0)
(9.70067e-38 -2.44313e-37 0)
(1.70817e-37 -6.81348e-37 0)
(1.40808e-37 2.75532e-37 0)
(9.48681e-38 4.42297e-37 0)
(6.78295e-38 1.17623e-37 0)
(1.7288e-38 2.62367e-38 0)
(3.90132e-39 4.41047e-39 0)
(6.73626e-40 6.80648e-40 0)
(1.06904e-40 9.22695e-41 0)
(1.48597e-41 1.17661e-41 0)
(1.93797e-42 1.38203e-42 0)
(2.582e-43 1.38263e-43 0)
(2.60456e-43 -1.39891e-43 0)
(1.96137e-42 -1.39668e-42 0)
(1.50644e-41 -1.19042e-41 0)
(1.08602e-40 -9.34952e-41 0)
(6.86498e-40 -6.90997e-40 0)
(3.9929e-39 -4.49066e-39 0)
(1.78508e-38 -2.68223e-38 0)
(7.10273e-38 -1.21329e-37 0)
(1.0804e-37 -4.63938e-37 0)
(1.89993e-37 -3.6555e-37 0)
(1.89988e-37 3.65546e-37 0)
(1.07991e-37 4.63906e-37 0)
(7.0605e-38 1.21027e-37 0)
(1.43827e-38 2.41714e-38 0)
(-2.2012e-38 -1.76363e-38 0)
(-1.82286e-37 -1.68625e-37 0)
(-1.10863e-36 -1.22292e-36 0)
(-6.20238e-36 -7.67064e-36 0)
(-2.47718e-35 -4.4775e-35 0)
(-8.78523e-35 -1.89761e-34 0)
(-9.57545e-37 -3.96475e-36 0)
(5.14569e-37 -1.9242e-36 0)
(2.57367e-37 -1.4233e-36 0)
(1.66758e-37 -3.81984e-37 0)
(3.85725e-38 7.13571e-38 0)
(1.63632e-38 1.33862e-37 0)
(9.86649e-39 -5.04858e-38 0)
(4.67773e-39 -1.0504e-37 0)
(9.84272e-39 -1.22259e-37 0)
(5.29559e-39 -1.31491e-37 0)
(3.43994e-39 7.70628e-38 0)
(2.28982e-38 1.90411e-37 0)
(2.84121e-38 -4.24838e-38 0)
(8.62849e-39 -1.20404e-37 0)
(-8.26672e-40 4.85238e-38 0)
(9.80139e-39 7.89717e-38 0)
(1.05031e-38 2.17853e-38 0)
(2.88276e-39 5.04704e-39 0)
(6.83933e-40 8.7663e-40 0)
(1.21972e-40 1.39058e-40 0)
(1.98446e-41 1.92893e-41 0)
(2.81271e-42 2.50593e-42 0)
(3.72628e-43 2.98976e-43 0)
(5.03494e-44 3.02571e-44 0)
(5.07968e-44 -3.06208e-44 0)
(3.77229e-43 -3.02217e-43 0)
(2.85254e-42 -2.53615e-42 0)
(2.01705e-41 -1.95541e-41 0)
(1.24402e-40 -1.41257e-40 0)
(7.00874e-40 -8.93346e-40 0)
(2.98414e-39 -5.16621e-39 0)
(1.10594e-38 -2.25178e-38 0)
(1.196e-38 -8.31034e-38 0)
(6.54548e-39 -6.49836e-38 0)
(6.52286e-39 6.49687e-38 0)
(1.17252e-38 8.29692e-38 0)
(8.99977e-39 2.12509e-38 0)
(-1.41579e-38 -6.09875e-39 0)
(-1.29906e-37 -9.46804e-38 0)
(-9.3738e-37 -7.46363e-37 0)
(-5.81885e-36 -5.54003e-36 0)
(-3.3508e-35 -3.6003e-35 0)
(-1.38602e-34 -2.19333e-34 0)
(-5.08182e-34 -9.8056e-34 0)
(-4.79257e-36 -2.20679e-35 0)
(3.99262e-36 -1.05115e-35 0)
(1.71162e-36 -7.56519e-36 0)
(1.04696e-36 -1.86971e-36 0)
(2.56384e-37 -3.8432e-37 0)
(6.06974e-38 -4.4188e-38 0)
(1.33489e-38 -1.87646e-38 0)
(2.75504e-39 -1.91828e-38 0)
(1.22546e-39 -2.08971e-38 0)
(-1.7044e-39 -2.20468e-38 0)
(-3.12924e-39 1.2902e-38 0)
(2.97306e-39 3.1815e-38 0)
(5.40374e-39 -6.98701e-39 0)
(-2.87324e-40 -2.00479e-38 0)
(-2.15014e-39 8.06657e-39 0)
(1.00107e-39 1.32538e-38 0)
(1.5667e-39 3.75721e-39 0)
(4.53442e-40 8.97853e-40 0)
(1.11605e-40 1.60095e-40 0)
(2.04135e-41 2.59774e-41 0)
(3.38802e-42 3.67205e-42 0)
(4.88032e-43 4.84508e-43 0)
(6.55099e-44 5.85637e-44 0)
(8.95888e-45 5.98459e-45 0)
(9.03965e-45 -6.05784e-45 0)
(6.63345e-44 -5.92107e-44 0)
(4.95103e-43 -4.90485e-43 0)
(3.4452e-42 -3.72383e-42 0)
(2.08342e-41 -2.64018e-41 0)
(1.14488e-40 -1.6327e-40 0)
(4.70328e-40 -9.20044e-40 0)
(1.65681e-39 -3.89039e-39 0)
(1.33505e-39 -1.39846e-38 0)
(-1.08874e-39 -1.08784e-38 0)
(-1.18374e-39 1.08248e-38 0)
(3.38876e-40 1.34973e-38 0)
(-7.18709e-39 -7.71139e-40 0)
(-7.42777e-38 -4.1193e-38 0)
(-5.80048e-37 -3.64667e-37 0)
(-4.26184e-36 -2.92715e-36 0)
(-2.72155e-35 -2.25528e-35 0)
(-1.621e-34 -1.54038e-34 0)
(-6.99363e-34 -9.98587e-34 0)
(-2.66219e-33 -4.80636e-33 0)
(-1.73738e-35 -1.16782e-34 0)
(3.2156e-35 -5.30375e-35 0)
(1.18814e-35 -3.82386e-35 0)
(6.19839e-36 -9.17254e-36 0)
(1.44582e-36 -1.94402e-36 0)
(3.1302e-37 -3.14542e-37 0)
(5.31607e-38 -4.96125e-38 0)
(8.41735e-39 -9.28413e-39 0)
(1.23531e-39 -4.09952e-39 0)
(-3.06867e-40 -3.54803e-39 0)
(-7.2367e-40 2.01121e-39 0)
(3.96826e-40 4.97423e-39 0)
(8.73586e-40 -1.07737e-39 0)
(-1.64019e-40 -3.1255e-39 0)
(-4.71429e-40 1.25584e-39 0)
(1.07151e-40 2.08083e-39 0)
(2.27211e-40 6.03718e-40 0)
(6.81676e-41 1.47936e-40 0)
(1.72365e-41 2.69564e-41 0)
(3.21524e-42 4.45598e-42 0)
(5.42245e-43 6.39891e-43 0)
(7.91535e-44 8.55365e-44 0)
(1.07424e-44 1.04545e-44 0)
(1.48411e-45 1.07723e-45 0)
(1.49765e-45 -1.09062e-45 0)
(1.08797e-44 -1.05719e-44 0)
(8.03213e-44 -8.66126e-44 0)
(5.51591e-43 -6.49127e-43 0)
(3.28313e-42 -4.53084e-42 0)
(1.76943e-41 -2.7509e-41 0)
(7.07881e-41 -1.5174e-40 0)
(2.40725e-40 -6.26147e-40 0)
(1.53223e-40 -2.20167e-39 0)
(-3.58156e-40 -1.71514e-39 0)
(-7.09759e-40 1.57105e-39 0)
(-3.57744e-39 8.73504e-40 0)
(-3.33825e-38 -1.22688e-38 0)
(-2.89521e-37 -1.18546e-37 0)
(-2.29842e-36 -1.05556e-36 0)
(-1.73737e-35 -8.79507e-36 0)
(-1.14785e-34 -7.1615e-35 0)
(-7.13799e-34 -5.29314e-34 0)
(-3.2389e-33 -3.7611e-33 0)
(-1.31074e-32 -2.02243e-32 0)
(-1.08759e-35 -5.57408e-34 0)
(2.55343e-34 -2.51103e-34 0)
(7.99203e-35 -1.84279e-34 0)
(3.3647e-35 -4.223e-35 0)
(7.28952e-36 -8.61566e-36 0)
(1.49485e-36 -1.35657e-36 0)
(2.42818e-37 -2.00277e-37 0)
(3.70212e-38 -2.6577e-38 0)
(4.99723e-39 -3.74104e-39 0)
(5.5782e-40 -8.88514e-40 0)
(-4.83088e-41 2.60286e-40 0)
(6.09341e-41 7.3623e-40 0)
(1.28815e-40 -1.5887e-40 0)
(-3.09673e-41 -4.64033e-40 0)
(-7.66719e-41 1.86227e-40 0)
(1.22105e-41 3.10705e-40 0)
(3.174e-41 9.18338e-41 0)
(9.76773e-42 2.29447e-41 0)
(2.52039e-42 4.25252e-42 0)
(4.77696e-43 7.13167e-43 0)
(8.16319e-44 1.03689e-43 0)
(1.20513e-44 1.40022e-44 0)
(1.65099e-45 1.7264e-45 0)
(2.30118e-46 1.79045e-46 0)
(2.32222e-46 -1.81301e-46 0)
(1.67213e-45 -1.7461e-45 0)
(1.22286e-44 -1.41817e-44 0)
(8.30212e-44 -1.05221e-43 0)
(4.87451e-43 -7.25512e-43 0)
(2.58231e-42 -4.34325e-42 0)
(1.00756e-41 -2.35683e-41 0)
(3.27958e-41 -9.55531e-41 0)
(8.78985e-42 -3.31572e-40 0)
(-1.66309e-40 -2.79996e-40 0)
(-1.16934e-39 -2.74032e-41 0)
(-1.07719e-38 -2.54658e-39 0)
(-9.87724e-38 -2.84057e-38 0)
(-8.68763e-37 -2.69147e-37 0)
(-7.07053e-36 -2.49382e-36 0)
(-5.51387e-35 -2.20852e-35 0)
(-3.78599e-34 -1.97872e-34 0)
(-2.46573e-33 -1.65913e-33 0)
(-1.18626e-32 -1.36145e-32 0)
(-5.11345e-32 -8.5068e-32 0)
(6.9144e-34 -3.04525e-33 0)
(2.1994e-33 -1.15617e-33 0)
(5.96165e-34 -8.10838e-34 0)
(2.05551e-34 -1.76288e-34 0)
(4.04813e-35 -3.41654e-35 0)
(7.78588e-36 -5.1696e-36 0)
(1.20821e-36 -7.37017e-37 0)
(1.78359e-37 -9.38885e-38 0)
(2.3435e-38 -1.14632e-38 0)
(2.92032e-39 -1.344e-39 0)
(3.25824e-40 -1.09687e-40 0)
(4.24475e-41 6.05398e-41 0)
(1.67136e-41 -1.72827e-41 0)
(-3.06022e-42 -4.69642e-41 0)
(-8.02189e-42 1.87993e-41 0)
(1.04376e-42 3.15316e-41 0)
(3.10282e-42 9.48824e-42 0)
(9.71953e-43 2.43065e-42 0)
(2.54454e-43 4.59798e-43 0)
(4.87975e-44 7.86485e-44 0)
(8.42001e-45 1.16282e-44 0)
(1.25348e-45 1.59415e-45 0)
(1.72906e-46 1.99132e-46 0)
(2.42523e-47 2.08673e-47 0)
(2.44296e-47 -2.11323e-47 0)
(1.74463e-46 -2.01407e-46 0)
(1.26308e-45 -1.61446e-45 0)
(8.44811e-45 -1.17967e-44 0)
(4.83359e-44 -7.99505e-44 0)
(2.42797e-43 -4.68699e-43 0)
(7.89942e-43 -2.48421e-42 0)
(7.6053e-43 -9.71444e-42 0)
(-2.63672e-41 -3.17739e-41 0)
(-3.06348e-40 -7.28522e-42 0)
(-3.07674e-39 2.16922e-40 0)
(-3.03239e-38 1.91183e-39 0)
(-2.83578e-37 1.72849e-38 0)
(-2.5615e-36 1.39268e-37 0)
(-2.1477e-35 8.40053e-37 0)
(-1.74505e-34 -2.87517e-37 0)
(-1.25274e-33 -1.14544e-34 0)
(-8.75659e-33 -2.32418e-33 0)
(-4.53223e-32 -2.99348e-32 0)
(-2.32019e-31 -2.68986e-31 0)
(1.41644e-32 -1.5452e-32 0)
(2.55226e-32 -6.35909e-33 0)
(5.45297e-33 -4.61258e-33 0)
(1.37772e-33 -8.73928e-34 0)
(2.36428e-34 -1.60778e-34 0)
(4.07878e-35 -2.30455e-35 0)
(5.92329e-36 -3.19017e-36 0)
(8.31577e-37 -3.94757e-37 0)
(1.0546e-37 -4.71008e-38 0)
(1.28218e-38 -5.23946e-39 0)
(1.45177e-39 -5.57665e-40 0)
(1.58288e-40 -5.00899e-41 0)
(1.72839e-41 -6.99837e-42 0)
(1.32473e-42 -4.76707e-42 0)
(-5.04517e-43 1.65576e-42 0)
(9.16088e-44 2.86543e-42 0)
(2.48208e-43 8.73325e-43 0)
(7.86497e-44 2.25947e-43 0)
(2.09166e-44 4.31394e-44 0)
(4.06465e-45 7.43047e-45 0)
(7.10129e-46 1.10546e-45 0)
(1.06856e-46 1.52254e-46 0)
(1.48817e-47 1.90952e-47 0)
(2.10885e-48 2.00719e-48 0)
(2.15597e-48 -2.01939e-48 0)
(1.54774e-47 -1.91397e-47 0)
(1.13747e-46 -1.51829e-46 0)
(7.90177e-46 -1.0901e-45 0)
(4.99105e-45 -7.14807e-45 0)
(3.15947e-44 -3.88889e-44 0)
(1.9969e-43 -1.68968e-43 0)
(1.59568e-42 -1.63655e-43 0)
(1.46381e-41 5.45516e-42 0)
(1.51895e-40 9.11083e-41 0)
(1.53158e-39 9.92588e-40 0)
(1.48141e-38 9.98708e-39 0)
(1.35692e-37 9.53948e-38 0)
(1.19175e-36 8.21519e-37 0)
(9.73546e-36 5.88893e-36 0)
(7.60154e-35 1.9502e-35 0)
(5.2798e-34 -3.39236e-34 0)
(3.46629e-33 -9.80428e-33 0)
(1.72715e-32 -1.479e-31 0)
(7.73717e-32 -1.6248e-30 0)
(1.71366e-31 -1.09487e-31 0)
(2.13234e-31 -1.59524e-32 0)
(3.1959e-32 -1.6056e-33 0)
(7.58561e-33 -1.22286e-34 0)
(1.17327e-33 -6.61503e-36 0)
(1.94877e-34 -1.79969e-37 0)
(2.7033e-35 1.69083e-38 0)
(3.70219e-36 3.68229e-39 0)
(4.5758e-37 4.77555e-40 0)
(5.46869e-38 5.1368e-41 0)
(6.0937e-39 5.44191e-42 0)
(6.54055e-40 1.05367e-42 0)
(6.66287e-41 -7.1112e-44 0)
(6.50461e-42 -3.44082e-43 0)
(5.5926e-43 1.39944e-43 0)
(6.17585e-44 2.36271e-43 0)
(2.49437e-44 7.28136e-44 0)
(6.86278e-45 1.9084e-44 0)
(1.76604e-45 3.68583e-45 0)
(3.42061e-46 6.41502e-46 0)
(5.98897e-47 9.63171e-47 0)
(9.04887e-48 1.33716e-47 0)
(1.26588e-48 1.6888e-48 0)
(1.90262e-49 1.78336e-49 0)
(3.26783e-49 -1.81666e-49 0)
(3.25574e-48 -1.72186e-48 0)
(3.53018e-47 -1.37286e-47 0)
(3.9726e-46 -1.00176e-46 0)
(4.55518e-45 -6.83814e-46 0)
(5.28939e-44 -4.15338e-45 0)
(6.07574e-43 -2.43207e-44 0)
(6.86429e-42 -1.31229e-43 0)
(7.51e-41 -8.84842e-43 0)
(7.96105e-40 -7.1581e-42 0)
(8.08176e-39 -7.35843e-41 0)
(7.90736e-38 -7.37926e-40 0)
(7.3338e-37 -6.87472e-39 0)
(6.54691e-36 -5.42107e-38 0)
(5.43929e-35 -2.68918e-37 0)
(4.35249e-34 2.10329e-36 0)
(3.09858e-33 8.86502e-35 0)
(2.12414e-32 1.68318e-33 0)
(1.10368e-31 2.26388e-32 0)
(5.51061e-31 2.30488e-31 0)
(2.10743e-32 -1.06559e-31 0)
(2.19239e-32 -1.22884e-32 0)
(4.76147e-33 2.6563e-33 0)
(1.22837e-33 7.18106e-34 0)
(2.1485e-34 1.5133e-34 0)
(3.76643e-35 2.26397e-35 0)
(5.53441e-36 3.18765e-36 0)
(7.84211e-37 3.96655e-37 0)
(1.00161e-37 4.73989e-38 0)
(1.22479e-38 5.26925e-39 0)
(1.39413e-39 5.64e-40 0)
(1.52099e-40 5.72789e-41 0)
(1.57161e-41 5.59188e-42 0)
(1.55838e-42 4.96374e-43 0)
(1.44032e-43 5.90182e-44 0)
(1.40408e-44 2.36168e-44 0)
(2.74428e-45 6.40345e-45 0)
(6.03966e-46 1.62618e-45 0)
(1.44412e-46 3.12935e-46 0)
(2.7533e-47 5.45355e-47 0)
(4.80909e-48 8.2157e-48 0)
(7.28476e-49 1.14419e-48 0)
(1.02295e-49 1.44903e-49 0)
(1.56748e-50 1.44416e-50 0)
(2.96456e-50 -2.85284e-50 0)
(3.03874e-49 -3.27794e-49 0)
(3.35685e-48 -3.62466e-48 0)
(3.81404e-47 -4.10147e-47 0)
(4.37925e-46 -4.77077e-46 0)
(5.04534e-45 -5.60219e-45 0)
(5.72157e-44 -6.59687e-44 0)
(6.34718e-43 -7.64134e-43 0)
(6.80572e-42 -8.6708e-42 0)
(7.03756e-41 -9.50785e-41 0)
(6.96213e-40 -1.00743e-39 0)
(6.591e-39 -1.01479e-38 0)
(5.91121e-38 -9.65974e-38 0)
(5.03575e-37 -8.21425e-37 0)
(3.99672e-36 -5.63067e-36 0)
(2.97211e-35 -1.21699e-35 0)
(1.98107e-34 4.83478e-34 0)
(1.18488e-33 1.20714e-32 0)
(5.58417e-33 1.76273e-31 0)
(1.86678e-32 1.89893e-30 0)
(4.97813e-33 -1.20769e-32 0)
(-1.00955e-35 -2.1068e-33 0)
(1.54433e-34 3.51183e-34 0)
(1.08635e-34 1.28072e-34 0)
(2.62565e-35 2.92875e-35 0)
(5.70968e-36 4.68801e-36 0)
(9.47682e-37 6.85145e-37 0)
(1.46484e-37 8.82502e-38 0)
(1.98544e-38 1.07997e-38 0)
(2.53969e-39 1.22733e-39 0)
(2.99062e-40 1.33612e-40 0)
(3.35164e-41 1.37753e-41 0)
(3.53721e-42 1.36444e-42 0)
(3.57301e-43 1.27245e-43 0)
(3.41252e-44 1.27303e-44 0)
(3.22875e-45 2.55129e-45 0)
(4.02174e-46 5.6196e-46 0)
(6.29312e-47 1.3321e-46 0)
(1.25112e-47 2.52536e-47 0)
(2.24448e-48 4.39043e-48 0)
(3.82869e-49 6.62988e-49 0)
(5.75489e-50 9.26451e-50 0)
(7.78606e-51 1.17845e-50 0)
(-2.77514e-51 1.29811e-51 0)
(-5.38052e-50 -5.91411e-52 0)
(-7.42613e-49 -2.4236e-51 0)
(-9.92742e-48 3.61829e-50 0)
(-1.28954e-46 1.05938e-48 0)
(-1.62483e-45 1.7991e-47 0)
(-1.98803e-44 2.56558e-46 0)
(-2.35347e-43 3.31071e-45 0)
(-2.70112e-42 4.00882e-44 0)
(-2.98669e-41 4.62759e-43 0)
(-3.1956e-40 5.1226e-42 0)
(-3.27243e-39 5.5297e-41 0)
(-3.23786e-38 5.87308e-40 0)
(-3.03393e-37 6.50587e-39 0)
(-2.7475e-36 7.89243e-38 0)
(-2.30986e-35 1.11602e-36 0)
(-1.88348e-34 1.71706e-35 0)
(-1.35681e-33 2.63084e-34 0)
(-9.52981e-33 3.58491e-33 0)
(-4.9524e-32 4.04372e-32 0)
(-2.55261e-31 3.3836e-31 0)
(6.37451e-34 -2.51823e-33 0)
(-1.77089e-34 -4.55474e-34 0)
(-2.77685e-35 2.19554e-35 0)
(4.79327e-36 1.6847e-35 0)
(2.26206e-36 4.6705e-36 0)
(6.32216e-37 8.26123e-37 0)
(1.1797e-37 1.30274e-37 0)
(1.96162e-38 1.77365e-38 0)
(2.79421e-39 2.26787e-39 0)
(3.70426e-40 2.66617e-40 0)
(4.48473e-41 2.98247e-41 0)
(5.13566e-42 3.14218e-42 0)
(5.51702e-43 3.17009e-43 0)
(5.65588e-44 3.03441e-44 0)
(5.49566e-45 2.89385e-45 0)
(5.19663e-46 3.66539e-46 0)
(5.50624e-47 5.79463e-47 0)
(6.85343e-48 1.15101e-47 0)
(1.11045e-48 2.05814e-48 0)
(1.81705e-49 3.4973e-49 0)
(2.97264e-50 5.24334e-50 0)
(4.40793e-51 7.31523e-51 0)
(7.4048e-52 9.96891e-52 0)
(1.9172e-51 1.08024e-51 0)
(2.55029e-50 1.39461e-50 0)
(3.44666e-49 1.95203e-49 0)
(4.53598e-48 2.6641e-48 0)
(5.80839e-47 3.53721e-47 0)
(7.2174e-46 4.56959e-46 0)
(8.70255e-45 5.73022e-45 0)
(1.01432e-43 6.9789e-44 0)
(1.14379e-42 8.2239e-43 0)
(1.24038e-41 9.39162e-42 0)
(1.29701e-40 1.03305e-40 0)
(1.2947e-39 1.09881e-39 0)
(1.24163e-38 1.11885e-38 0)
(1.12351e-37 1.10092e-37 0)
(9.73088e-37 1.02951e-36 0)
(7.78342e-36 9.36154e-36 0)
(5.93388e-35 8.04201e-35 0)
(3.97058e-34 6.84606e-34 0)
(2.50071e-33 5.36189e-33 0)
(1.15934e-32 4.09054e-32 0)
(4.76145e-32 2.3828e-31 0)
(9.59365e-35 -3.15212e-34 0)
(-4.20294e-35 -6.53763e-35 0)
(-8.5973e-36 -1.02248e-36 0)
(-5.90635e-37 1.55988e-36 0)
(1.10615e-37 5.38828e-37 0)
(5.83787e-38 1.04882e-37 0)
(1.29682e-38 1.76234e-38 0)
(2.37611e-39 2.51308e-39 0)
(3.59167e-40 3.32629e-40 0)
(4.96769e-41 4.01927e-41 0)
(6.20508e-42 4.59392e-42 0)
(7.28042e-43 4.92698e-43 0)
(7.97316e-44 5.04456e-44 0)
(8.30399e-45 4.90367e-45 0)
(8.1909e-46 4.65109e-46 0)
(7.79234e-47 4.97269e-47 0)
(7.66504e-48 6.25048e-48 0)
(8.19011e-49 1.01701e-48 0)
(1.07621e-49 1.66343e-49 0)
(1.53967e-50 2.71432e-50 0)
(2.33824e-51 4.00757e-51 0)
(3.89193e-52 5.59724e-52 0)
(8.57405e-52 1.36892e-52 0)
(1.16117e-50 9.80544e-52 0)
(1.61872e-49 1.39296e-50 0)
(2.2018e-48 1.9471e-49 0)
(2.91553e-47 2.65479e-48 0)
(3.75783e-46 3.52413e-47 0)
(4.70232e-45 4.55455e-46 0)
(5.71495e-44 5.7159e-45 0)
(6.71975e-43 6.96942e-44 0)
(7.65521e-42 8.22412e-43 0)
(8.39759e-41 9.40828e-42 0)
(8.90233e-40 1.03718e-40 0)
(9.0261e-39 1.10701e-39 0)
(8.82393e-38 1.13423e-38 0)
(8.16242e-37 1.13115e-37 0)
(7.27231e-36 1.09041e-36 0)
(6.01008e-35 1.05843e-35 0)
(4.78852e-34 1.03245e-34 0)
(3.37018e-33 1.06576e-33 0)
(2.28488e-32 1.07565e-32 0)
(1.14953e-31 1.02667e-31 0)
(5.53083e-31 7.58426e-31 0)
(1.14091e-35 -4.58952e-35 0)
(-5.53337e-36 -9.89537e-36 0)
(-1.26334e-36 -8.06783e-37 0)
(-1.5709e-37 7.78798e-38 0)
(-3.16395e-39 5.18003e-38 0)
(4.29428e-39 1.17378e-38 0)
(1.20825e-39 2.15359e-39 0)
(2.45506e-40 3.24867e-40 0)
(3.93404e-41 4.48118e-41 0)
(5.66123e-42 5.58452e-42 0)
(7.27912e-43 6.53935e-43 0)
(8.73192e-44 7.15005e-44 0)
(9.73374e-45 7.43711e-45 0)
(1.02846e-45 7.3332e-46 0)
(1.02757e-46 6.98313e-47 0)
(9.85494e-48 6.89794e-48 0)
(9.4287e-49 7.4179e-49 0)
(9.335e-50 9.80261e-50 0)
(1.0598e-50 1.40535e-50 0)
(1.33098e-51 2.12921e-51 0)
(1.89277e-52 3.03678e-52 0)
(1.07237e-52 3.82115e-53 0)
(1.208e-51 -4.28234e-53 0)
(1.72414e-50 -7.02647e-52 0)
(2.40743e-49 -1.00552e-50 0)
(3.27874e-48 -1.40265e-49 0)
(4.34739e-47 -1.90823e-48 0)
(5.61159e-46 -2.52727e-47 0)
(7.0331e-45 -3.25804e-46 0)
(8.56273e-44 -4.07773e-45 0)
(1.00874e-42 -4.95658e-44 0)
(1.15166e-41 -5.82767e-43 0)
(1.2663e-40 -6.63334e-42 0)
(1.34612e-39 -7.25238e-41 0)
(1.36889e-38 -7.60375e-40 0)
(1.3431e-37 -7.44931e-39 0)
(1.24724e-36 -6.56257e-38 0)
(1.11689e-35 -4.26388e-37 0)
(9.27938e-35 1.94097e-37 0)
(7.45063e-34 8.05813e-35 0)
(5.28433e-33 1.93774e-33 0)
(3.63198e-32 3.24318e-32 0)
(1.85046e-31 4.14835e-31 0)
(9.21e-31 4.04947e-30 0)
(1.39907e-36 -5.36201e-36 0)
(-6.90151e-37 -1.23259e-36 0)
(-1.64787e-37 -1.51255e-37 0)
(-2.67999e-38 -3.16682e-39 0)
(-2.14972e-39 3.95775e-39 0)
(1.74764e-40 1.10891e-39 0)
(9.47628e-41 2.23933e-40 0)
(2.27511e-41 3.57246e-41 0)
(3.94037e-42 5.12246e-42 0)
(5.95378e-43 6.56906e-43 0)
(7.91515e-44 7.86354e-44 0)
(9.73374e-45 8.75126e-45 0)
(1.10606e-45 9.23422e-46 0)
(1.18669e-46 9.21985e-47 0)
(1.20107e-47 8.84318e-48 0)
(1.16263e-48 8.47744e-49 0)
(1.10083e-49 8.42512e-50 0)
(1.04634e-50 9.61127e-51 0)
(1.07451e-51 1.21066e-51 0)
(1.19943e-52 1.67308e-52 0)
(1.50363e-53 2.21036e-53 0)
(4.21296e-54 -6.87628e-54 0)
(3.42863e-53 -1.47992e-52 0)
(4.87587e-52 -2.17384e-51 0)
(6.8127e-51 -3.11188e-50 0)
(9.28546e-50 -4.34628e-49 0)
(1.2322e-48 -5.92083e-48 0)
(1.59196e-47 -7.85281e-47 0)
(1.99718e-46 -1.01394e-45 0)
(2.43421e-45 -1.2712e-44 0)
(2.87104e-44 -1.54817e-43 0)
(3.28225e-43 -1.82425e-42 0)
(3.61426e-42 -2.08241e-41 0)
(3.84862e-41 -2.28647e-40 0)
(3.92091e-40 -2.4175e-39 0)
(3.8556e-39 -2.41625e-38 0)
(3.58889e-38 -2.25198e-37 0)
(3.22351e-37 -1.79027e-36 0)
(2.68656e-36 -9.33593e-36 0)
(2.16652e-35 5.57973e-35 0)
(1.54324e-34 2.65057e-33 0)
(1.06825e-33 5.11164e-32 0)
(5.47768e-33 6.90564e-31 0)
(2.76953e-32 7.04469e-30 0)
(1.50882e-37 -6.44071e-37 0)
(-7.37467e-38 -1.5254e-37 0)
(-1.83857e-38 -2.42686e-38 0)
(-3.46312e-39 -1.8745e-39 0)
(-3.72859e-40 1.75581e-40 0)
(-9.93026e-42 8.83497e-41 0)
(5.80253e-42 2.08819e-41 0)
(1.84473e-42 3.59155e-42 0)
(3.52407e-43 5.40215e-43 0)
(5.62447e-44 7.16024e-44 0)
(7.74656e-45 8.78532e-45 0)
(9.7711e-46 9.96572e-46 0)
(1.13188e-46 1.06774e-46 0)
(1.23287e-47 1.07972e-47 0)
(1.26349e-48 1.04479e-48 0)
(1.23479e-49 9.90028e-50 0)
(1.16758e-50 9.42927e-51 0)
(1.08905e-51 9.71566e-52 0)
(1.05423e-52 1.08811e-52 0)
(1.04466e-53 1.35147e-53 0)
(-4.24769e-54 1.47758e-54 0)
(-8.17452e-53 -3.49763e-54 0)
(-1.19957e-51 -5.56463e-53 0)
(-1.71682e-50 -8.14942e-52 0)
(-2.39728e-49 -1.16538e-50 0)
(-3.26493e-48 -1.62586e-49 0)
(-4.32907e-47 -2.2122e-48 0)
(-5.58794e-46 -2.93025e-47 0)
(-7.00342e-45 -3.77806e-46 0)
(-8.52655e-44 -4.72925e-45 0)
(-1.00447e-42 -5.74943e-44 0)
(-1.14677e-41 -6.7611e-43 0)
(-1.26091e-40 -7.69799e-42 0)
(-1.34037e-39 -8.42097e-41 0)
(-1.36301e-38 -8.84116e-40 0)
(-1.33731e-37 -8.69514e-39 0)
(-1.24183e-36 -7.75261e-38 0)
(-1.11202e-35 -5.28977e-37 0)
(-9.2385e-35 -5.49794e-37 0)
(-7.4177e-34 7.78873e-35 0)
(-5.2608e-33 1.97425e-33 0)
(-3.61608e-32 3.35562e-32 0)
(-1.84244e-31 4.31914e-31 0)
(-9.17485e-31 4.23726e-30 0)
(1.60303e-38 -6.86429e-38 0)
(-7.69151e-39 -1.68749e-38 0)
(-1.96704e-39 -3.12145e-39 0)
(-4.13872e-40 -3.29203e-40 0)
(-5.22608e-41 -7.13905e-42 0)
(-3.90276e-42 5.53401e-42 0)
(1.44561e-43 1.7048e-42 0)
(1.2568e-43 3.22647e-43 0)
(2.83677e-44 5.12291e-44 0)
(4.8888e-45 7.03353e-45 0)
(7.04002e-46 8.85147e-46 0)
(9.15126e-47 1.02363e-46 0)
(1.08342e-47 1.1135e-47 0)
(1.19986e-48 1.14012e-48 0)
(1.24605e-49 1.11363e-49 0)
(1.23032e-50 1.05318e-50 0)
(1.16696e-51 9.82868e-52 0)
(1.08018e-52 9.53797e-53 0)
(1.00856e-53 1.01931e-53 0)
(6.91807e-55 1.25244e-54 0)
(-3.86487e-54 4.2934e-55 0)
(-5.92535e-53 4.0255e-54 0)
(-8.67255e-52 6.00439e-53 0)
(-1.23983e-50 8.80496e-52 0)
(-1.72921e-49 1.26164e-50 0)
(-2.35203e-48 1.76395e-49 0)
(-3.11433e-47 2.40577e-48 0)
(-4.01382e-46 3.19479e-47 0)
(-5.02228e-45 4.13084e-46 0)
(-6.10324e-44 5.18688e-45 0)
(-7.17551e-43 6.32823e-44 0)
(-8.17331e-42 7.47246e-43 0)
(-8.96449e-41 8.55506e-42 0)
(-9.50149e-40 9.4396e-41 0)
(-9.63138e-39 1.00872e-39 0)
(-9.41308e-38 1.0353e-38 0)
(-8.70447e-37 1.03572e-37 0)
(-7.75219e-36 1.00439e-36 0)
(-6.40349e-35 9.86201e-36 0)
(-5.09914e-34 9.80505e-35 0)
(-3.58629e-33 1.0366e-33 0)
(-2.42989e-32 1.07154e-32 0)
(-1.22149e-31 1.0397e-31 0)
(-5.87695e-31 7.78125e-31 0)
(-7.4435e-35 3.88884e-30 0)
(1.10877e-39 -9.35476e-39 0)
(-5.26639e-40 -2.36702e-39 0)
(-1.3711e-40 -5.00736e-40 0)
(-3.02393e-41 -6.43299e-41 0)
(-4.04577e-42 -5.19422e-42 0)
(-3.62949e-43 6.88865e-44 0)
(-4.89143e-45 1.32049e-43 0)
(6.5688e-45 3.12234e-44 0)
(1.70149e-45 5.47778e-45 0)
(3.08797e-46 7.96377e-46 0)
(4.57162e-47 1.0415e-46 0)
(6.04972e-48 1.2383e-47 0)
(7.25339e-49 1.37574e-48 0)
(8.10932e-50 1.4323e-49 0)
(8.48472e-51 1.41613e-50 0)
(8.42855e-52 1.33882e-51 0)
(8.05748e-53 1.1636e-52 0)
(8.37303e-54 1.12609e-53 0)
(8.44825e-55 7.76522e-54 0)
(-4.01253e-55 2.32732e-54 0)
(-1.16673e-54 8.70912e-55 0)
(-1.55114e-53 3.49427e-54 0)
(-2.25783e-52 5.03885e-53 0)
(-3.21769e-51 7.37382e-52 0)
(-4.47254e-50 1.0547e-50 0)
(-6.06052e-49 1.47182e-49 0)
(-7.99154e-48 2.0032e-48 0)
(-1.02517e-46 2.65429e-47 0)
(-1.27616e-45 3.4236e-46 0)
(-1.54176e-44 4.28753e-45 0)
(-1.80089e-43 5.21552e-44 0)
(-2.03587e-42 6.13873e-43 0)
(-2.21424e-41 7.00147e-42 0)
(-2.32346e-40 7.69105e-41 0)
(-2.32893e-39 8.16774e-40 0)
(-2.2448e-38 8.30229e-39 0)
(-2.04372e-37 8.15088e-38 0)
(-1.78364e-36 7.6018e-37 0)
(-1.44025e-35 6.88495e-36 0)
(-1.11093e-34 5.88275e-35 0)
(-7.54442e-34 4.96713e-34 0)
(-4.83169e-33 3.85089e-33 0)
(-2.28911e-32 2.90335e-32 0)
(-9.56444e-32 1.67214e-31 0)
(-1.06343e-35 7.83441e-31 0)
(-4.75972e-39 -2.31282e-38 0)
(2.23917e-39 -5.84303e-39 0)
(5.90001e-40 -1.23173e-39 0)
(1.35832e-40 -1.57903e-40 0)
(1.91787e-41 -1.27452e-41 0)
(2.00535e-42 1.59126e-43 0)
(1.02058e-43 3.20013e-43 0)
(-1.49828e-44 7.5669e-44 0)
(-5.43963e-45 1.32656e-44 0)
(-1.08157e-45 1.92685e-45 0)
(-1.67045e-46 2.51791e-46 0)
(-2.26734e-47 2.99141e-47 0)
(-2.76461e-48 3.32127e-48 0)
(-3.1289e-49 3.45487e-49 0)
(-3.30404e-50 3.39909e-50 0)
(-3.30118e-51 3.12714e-51 0)
(-3.07997e-52 1.658e-52 0)
(-1.26341e-53 2.24915e-53 0)
(1.6004e-55 1.12411e-52 0)
(-6.968e-54 3.6414e-53 0)
(-2.56835e-54 1.05743e-53 0)
(-4.23784e-54 3.04369e-54 0)
(-5.18811e-53 1.383e-53 0)
(-7.36304e-52 1.96203e-52 0)
(-1.02158e-50 2.79641e-51 0)
(-1.38129e-49 3.88854e-50 0)
(-1.81673e-48 5.27159e-49 0)
(-2.32343e-47 6.95482e-48 0)
(-2.88187e-46 8.92696e-47 0)
(-3.46678e-45 1.11198e-45 0)
(-4.0291e-44 1.3444e-44 0)
(-4.52751e-43 1.57167e-43 0)
(-4.88919e-42 1.77847e-42 0)
(-5.08641e-41 1.93648e-41 0)
(-5.04591e-40 2.03478e-40 0)
(-4.80232e-39 2.0432e-39 0)
(-4.30434e-38 1.97437e-38 0)
(-3.68406e-37 1.805e-37 0)
(-2.90199e-36 1.58686e-36 0)
(-2.17059e-35 1.29932e-35 0)
(-1.4161e-34 1.02648e-34 0)
(-8.66208e-34 7.26287e-34 0)
(-3.85651e-33 4.8857e-33 0)
(-1.53228e-32 2.47755e-32 0)
(-5.8546e-37 1.04276e-31 0)
(-5.02198e-38 -2.15359e-37 0)
(2.40312e-38 -5.32079e-38 0)
(6.17429e-39 -1.01022e-38 0)
(1.32166e-39 -1.11954e-39 0)
(1.71261e-40 -4.35011e-41 0)
(1.41264e-41 1.35263e-41 0)
(-9.94389e-44 4.71409e-42 0)
(-3.34343e-43 9.21117e-43 0)