/*--------------------------------*- C++ -*----------------------------------*\
| =========                 |                                                 |
| \\      /  F ield         | OpenFOAM: The Open Source CFD Toolbox           |
|  \\    /   O peration     | Version:  2.4.0                                 |
|   \\  /    A nd           | Web:      www.OpenFOAM.org                      |
|    \\/     M anipulation  |                                                 |
\*---------------------------------------------------------------------------*/
FoamFile
{
    version     2.0;
    format      ascii;
    class       surfaceScalarField;
    location    "0.75";
    object      phi;
}
// * * * * * * * * * * * * * * * * * * * * * * * * * * * * * * * * * * * * * //

dimensions      [0 3 -1 0 0 0 0];

internalField   nonuniform List<scalar> 
3782
(
-2.84457e-39
2.95068e-37
-3.41936e-39
5.31145e-38
-9.83656e-40
9.9643e-39
-3.21152e-39
1.30039e-39
-2.99698e-38
-4.92567e-40
-2.3098e-37
-2.99177e-38
-1.94266e-36
-6.3427e-37
-9.30872e-36
-9.66771e-36
-7.45898e-35
-1.89016e-34
-3.64244e-34
-1.57637e-36
-2.34469e-34
5.95643e-35
-1.2709e-32
-9.79188e-36
1.29815e-32
-1.24664e-34
2.56851e-34
-7.21633e-36
3.7658e-34
6.174e-35
8.55052e-35
8.30699e-36
8.40175e-35
1.6784e-38
3.2266e-34
-7.63171e-36
-2.5707e-34
-5.81124e-35
1.38665e-32
9.32348e-35
-3.06147e-32
2.14772e-34
-7.65931e-34
-7.22688e-35
-1.22591e-33
-2.15621e-34
1.46958e-32
7.65776e-35
-3.22527e-32
2.16394e-34
-7.80976e-34
-1.47873e-34
1.58518e-32
-1.62328e-34
-1.65534e-32
5.6893e-35
1.65324e-32
4.59484e-36
-1.76401e-32
-1.87517e-34
-4.34766e-34
-1.49869e-35
-5.06971e-34
-8.42413e-35
-1.03569e-34
-1.13919e-35
-1.34894e-35
-1.77742e-36
-1.27451e-35
-5.72986e-39
-9.92943e-35
1.72968e-36
-4.24437e-34
1.0262e-35
3.35081e-34
7.66919e-35
-1.82684e-32
-1.22195e-34
4.02826e-32
-2.84122e-34
1.45879e-33
8.34567e-35
1.29267e-33
2.00925e-34
2.6066e-35
2.20208e-36
-2.37863e-38
1.39458e-35
-1.77659e-37
9.49907e-35
-1.30228e-36
-7.19202e-36
4.2991e-34
3.77721e-37
-2.82058e-38
2.29601e-36
-2.09807e-37
1.4109e-35
-1.52513e-36
-8.36258e-36
6.00311e-35
6.61707e-38
-5.15958e-39
3.59607e-37
-3.80692e-38
1.90308e-36
-2.63121e-37
-1.3682e-36
5.83088e-36
7.95633e-39
3.77864e-40
4.01107e-38
-4.9028e-39
1.88497e-37
-4.47461e-38
-2.2057e-37
4.37016e-37
3.80024e-40
1.22603e-38
3.97094e-39
1.73039e-38
1.94141e-38
-1.28119e-39
-2.48794e-38
3.36134e-38
-1.95077e-38
7.47949e-38
-7.95792e-39
1.17537e-37
-1.73055e-39
2.55272e-38
2.07416e-39
1.77515e-39
-3.90828e-37
4.90989e-37
-1.14011e-37
8.18782e-37
-3.61983e-38
1.58632e-37
2.88525e-38
-6.96296e-39
-5.6919e-36
-1.09959e-36
-1.18852e-36
4.36947e-37
-2.7192e-37
9.73783e-38
1.96443e-38
-4.61424e-38
-1.13178e-35
-1.42114e-35
-8.48568e-36
-2.99273e-36
-1.81587e-36
-4.221e-37
-6.02542e-38
-2.78309e-37
3.71619e-36
-6.28652e-35
8.43277e-37
-8.11866e-36
1.11429e-37
-8.03355e-37
-7.96371e-38
1.10936e-38
6.75816e-35
-4.09532e-34
1.25261e-35
-3.69525e-35
2.23027e-36
-2.47727e-36
-1.05754e-37
3.13417e-37
-1.13406e-35
-3.51153e-34
-2.4238e-36
-3.0789e-35
-4.59276e-37
-2.00433e-36
-7.86165e-38
-6.88037e-38
-1.40906e-34
3.76977e-34
-2.63529e-35
3.31925e-35
-4.74465e-36
2.17256e-36
8.6717e-38
-6.73751e-37
-8.43835e-36
4.20403e-34
-1.87067e-36
3.79323e-35
-3.5727e-37
2.53643e-36
1.06198e-37
-5.39715e-38
6.97268e-35
6.41844e-35
1.29808e-35
7.5418e-36
2.32891e-36
6.69894e-37
5.30509e-38
3.29586e-37
9.65995e-36
1.55901e-35
2.08736e-36
2.59484e-36
3.94165e-37
3.28705e-37
4.09457e-38
5.89071e-38
2.30903e-38
1.50601e-35
8.68691e-39
2.45507e-36
2.3604e-39
3.04446e-37
3.72422e-38
4.59746e-40
-8.84814e-36
5.36925e-35
-1.88452e-36
5.35498e-36
-3.48512e-37
3.51963e-37
9.03367e-39
-5.12072e-38
-6.52036e-35
3.8156e-34
-1.16955e-35
3.09616e-35
-2.06182e-36
1.69256e-36
9.44243e-39
-2.8624e-37
1.06034e-34
-1.65321e-34
2.05073e-35
-1.9105e-35
3.73863e-36
-1.68141e-36
-1.31986e-37
5.38261e-37
2.42692e-34
-1.41564e-33
4.53245e-35
-1.28093e-34
8.15192e-36
-8.6879e-36
-3.90213e-37
1.15644e-36
-8.16073e-35
-1.00044e-33
-1.51816e-35
-9.30163e-35
-2.72116e-36
-6.58586e-36
-3.40355e-37
-3.84739e-37
-2.43478e-34
2.44065e-34
-4.52911e-35
1.31599e-35
-8.12386e-36
-5.06351e-38
-1.50845e-37
-1.14939e-36
8.64562e-35
-1.93576e-34
1.60664e-35
-2.33804e-35
2.87673e-36
-2.18594e-36
-1.90874e-37
4.06385e-37
2.44071e-34
-1.4452e-33
4.51106e-35
-1.29921e-34
8.07441e-36
-8.78334e-36
-3.94884e-37
1.1395e-36
-1.66807e-34
-5.81448e-34
-3.08543e-35
-5.4818e-35
-5.53285e-36
-3.89791e-36
-1.98869e-37
-7.82113e-37
-1.83734e-34
3.62179e-34
-3.46563e-35
2.81541e-35
-6.25696e-36
1.44783e-36
-4.67841e-39
-8.91428e-37
6.40876e-35
2.73429e-35
1.12157e-35
1.77225e-36
1.94768e-36
-4.24669e-38
-2.88341e-38
2.65917e-37
1.32716e-35
-7.37234e-35
2.89116e-36
-7.28163e-36
4.67214e-37
-4.93653e-37
-1.1363e-38
6.07046e-38
7.82969e-35
-5.78915e-34
5.46756e-36
-5.44281e-35
5.66024e-37
-3.92642e-36
-2.20212e-37
5.03018e-38
-9.42796e-36
-5.742e-34
-1.94109e-36
-5.4275e-35
-4.33075e-37
-3.95476e-36
-2.28849e-37
-7.2383e-38
-9.47537e-35
-8.68842e-35
-1.77848e-35
-1.04965e-35
-3.22492e-36
-9.73213e-37
-8.41309e-38
-4.6087e-37
-1.32362e-35
-1.87528e-35
-2.87712e-36
-3.12468e-36
-5.48581e-37
-3.96139e-37
-4.96597e-38
-8.26837e-38
-2.09002e-36
-2.75017e-36
-4.76449e-37
-5.23707e-37
-9.7026e-38
-7.47449e-38
-1.02499e-38
-1.53291e-38
-7.20007e-39
-2.57753e-36
-2.12178e-39
-4.78942e-37
-5.76939e-40
-6.70071e-38
-9.00354e-39
-1.11544e-40
2.02918e-36
-1.75338e-35
4.56807e-37
-2.80459e-36
9.17801e-38
-3.40824e-37
-4.09527e-38
1.43227e-38
1.19041e-35
-7.05662e-35
2.54205e-36
-7.01002e-36
4.71667e-37
-4.55937e-37
-1.06869e-38
6.95079e-38
8.60555e-35
-5.03341e-34
1.5441e-35
-4.08377e-35
2.72257e-36
-2.22988e-36
-1.17852e-38
3.7804e-37
-1.38983e-34
2.14244e-34
-2.68934e-35
2.50366e-35
-4.90467e-36
2.23364e-36
1.79515e-37
-7.06397e-37
-3.21139e-34
1.87375e-33
-6.00601e-35
1.70829e-34
-1.08128e-35
1.17457e-35
5.54672e-37
-1.53536e-36
9.3898e-35
1.38868e-33
1.71132e-35
1.29665e-34
3.04974e-36
9.14808e-36
4.60724e-37
4.2811e-37
2.27428e-34
2.22671e-34
4.28759e-35
2.72428e-35
7.73992e-36
2.5522e-36
2.21149e-37
1.1025e-36
3.03496e-35
6.62406e-36
1.26825e-36
1.91934e-37
5.82017e-34
-4.7184e-35
1.14504e-32
-3.4523e-35
1.12977e-35
9.02455e-35
-1.13603e-32
8.91865e-35
-1.23129e-34
-4.19945e-35
2.2289e-34
-9.5583e-35
1.18112e-32
-4.93232e-35
6.49904e-34
4.08117e-35
4.47817e-34
4.82516e-35
8.8299e-35
7.45352e-36
1.12154e-35
1.19821e-36
1.24352e-36
1.44557e-37
-2.81172e-36
4.8618e-38
-2.09214e-35
2.67648e-37
-1.65506e-34
2.25618e-36
-8.08697e-34
1.37238e-35
-8.61333e-34
8.9171e-35
-2.30468e-32
3.43981e-35
1.10257e-32
-1.33454e-34
4.24712e-34
-1.03174e-34
1.21812e-32
-8.30482e-36
8.14827e-34
5.0738e-35
9.07451e-34
4.94496e-35
7.51366e-34
-3.59402e-35
1.19096e-32
-4.03801e-35
6.62056e-34
4.25174e-35
4.49703e-34
5.29009e-35
9.00388e-35
1.0208e-35
1.45316e-35
-1.57323e-36
2.34454e-35
-4.63073e-36
1.75902e-34
-2.69008e-36
8.91003e-34
-1.41992e-35
1.25347e-33
-8.7163e-35
2.35006e-32
7.42389e-35
1.38144e-33
1.28888e-34
-1.05767e-32
6.2455e-35
2.19913e-32
-6.6342e-36
-2.2891e-32
1.26507e-34
-7.67622e-34
2.68297e-36
-7.14008e-35
3.45398e-34
-5.37873e-35
5.5118e-34
-3.90743e-35
1.86305e-36
1.02802e-34
-5.37759e-34
1.01563e-34
-2.82252e-34
-4.77662e-35
2.97258e-34
-1.08997e-34
6.00981e-34
-5.629e-35
3.56521e-34
4.63811e-35
6.26808e-35
5.50361e-35
1.31126e-35
8.67117e-36
1.84856e-36
1.40335e-36
2.10213e-37
1.70793e-37
-4.7872e-37
5.76629e-38
-3.43944e-36
3.16094e-37
-2.43986e-35
2.64106e-36
-1.1248e-34
1.59568e-35
-6.51886e-34
1.01544e-34
-8.56215e-34
3.89261e-35
-3.98779e-35
-1.51991e-34
5.90948e-34
-1.1785e-34
6.51603e-34
-1.00304e-35
3.80254e-34
5.30248e-35
1.27877e-34
5.26438e-35
3.72452e-34
-4.55997e-35
6.15759e-34
-4.62556e-35
3.57996e-34
4.80184e-35
6.30963e-35
5.59206e-35
1.45461e-35
1.29687e-35
2.50353e-36
-2.91428e-36
3.30124e-36
-8.63692e-37
2.59017e-35
-2.82743e-36
1.23811e-34
-1.68649e-35
7.06104e-34
-1.04297e-34
1.18781e-33
-8.15076e-35
4.5788e-34
1.4124e-34
1.02312e-34
6.63195e-35
1.79818e-34
-1.0435e-35
-5.67375e-34
1.39389e-34
-5.98865e-34
7.30219e-36
-7.79699e-35
2.34573e-35
-7.65596e-36
3.51315e-35
-5.26404e-36
2.94319e-37
1.4561e-35
-3.32818e-35
1.43486e-35
-1.72678e-35
-6.69016e-36
1.93605e-35
-1.55594e-35
3.94795e-35
-8.08608e-36
2.49292e-35
6.45123e-36
6.1022e-36
7.87094e-36
1.79295e-36
1.42274e-36
2.91297e-37
2.42372e-37
3.64239e-38
3.1252e-38
-8.3762e-38
1.08516e-38
-5.37395e-37
5.76701e-38
-3.29862e-36
4.54488e-37
-1.04518e-35
2.60646e-36
-4.399e-35
1.43452e-35
-5.54451e-35
5.23657e-36
-3.05013e-36
-2.14971e-35
3.81623e-35
-1.70143e-35
4.39652e-35
-1.64943e-36
2.81347e-35
7.54553e-36
1.25892e-35
7.61621e-36
2.71586e-35
-6.29436e-36
4.15322e-35
-6.4192e-36
2.51786e-35
6.74411e-36
6.17463e-36
8.03894e-36
1.99849e-36
2.22904e-36
4.03711e-37
-5.67648e-37
5.20111e-37
-1.635e-37
3.42671e-36
-4.92096e-37
1.12985e-35
-2.74529e-36
4.8439e-35
-1.48105e-35
7.99853e-35
-7.18588e-36
3.45954e-35
1.97394e-35
9.23337e-36
9.78536e-36
1.05053e-35
-4.5021e-37
-3.75392e-35
1.94875e-35
-4.11475e-35
1.20379e-36
-1.06422e-35
1.15777e-36
-1.1677e-36
1.58069e-36
-7.88642e-37
3.30904e-38
2.22401e-36
-1.3942e-36
2.18764e-36
-6.87344e-37
-1.01836e-36
9.0061e-37
-2.38036e-36
1.8656e-36
-1.24254e-36
1.301e-36
9.77235e-37
4.59869e-37
1.20566e-36
1.79484e-37
2.28992e-37
3.26915e-38
4.1774e-38
4.3279e-39
5.65685e-39
-1.00335e-38
2.04375e-39
-5.99569e-38
1.03964e-38
-3.26779e-37
7.80838e-38
-7.45065e-37
4.16837e-37
-2.16784e-36
2.18699e-36
-2.56663e-36
7.8379e-37
-1.60555e-37
-3.28481e-36
1.73786e-36
-2.61522e-36
2.1612e-36
-2.68701e-37
1.6136e-36
1.14313e-36
9.66642e-37
1.12527e-36
1.53408e-36
-9.56678e-37
2.07422e-36
-9.72145e-37
1.32602e-36
1.0274e-36
4.6933e-37
1.22897e-36
2.10273e-37
3.22098e-37
4.6779e-38
-5.20124e-38
5.40334e-38
-2.22842e-38
3.3391e-37
-8.28551e-38
7.94904e-37
-4.31732e-37
2.4443e-36
-2.22904e-36
4.00149e-36
-8.95198e-37
1.99973e-36
3.0365e-36
6.32301e-37
1.52199e-36
4.5425e-37
-5.77558e-38
-1.82376e-36
2.96815e-36
-2.15801e-36
2.13905e-37
-1.56708e-36
3.12287e-38
-1.28086e-37
2.28222e-38
-8.44281e-38
3.81262e-39
2.44169e-37
-2.94494e-39
2.39745e-37
5.78674e-39
-1.11269e-37
1.71177e-38
-2.62065e-37
4.01074e-38
-1.37385e-37
4.6071e-38
1.06246e-37
3.57512e-38
1.32898e-37
1.90049e-38
2.6727e-38
3.75978e-39
5.10815e-39
5.23527e-40
7.21685e-40
-1.22146e-39
2.68094e-40
-6.85815e-39
1.32226e-39
-3.43129e-38
9.52047e-39
-5.30814e-38
4.8428e-38
-5.92906e-38
2.3966e-37
-4.81258e-38
8.38309e-38
-4.55797e-39
-3.60627e-37
2.6977e-38
-2.89526e-37
5.86764e-38
-3.14811e-38
7.88343e-38
1.2561e-37
7.6816e-38
1.2568e-37
7.11864e-38
-1.03376e-37
6.24451e-38
-1.05482e-37
4.90775e-38
1.12517e-37
3.68967e-38
1.36025e-37
2.24093e-38
3.91356e-38
5.44379e-39
-7.38746e-39
6.14625e-39
-2.97527e-39
3.41903e-38
-1.01008e-38
5.29711e-38
-4.96005e-38
7.19849e-38
-2.42184e-37
1.25339e-37
-8.85783e-38
9.98811e-38
3.3436e-37
4.2692e-38
1.71326e-37
7.16171e-39
2.67168e-39
-4.97616e-38
3.24951e-37
-8.2795e-38
2.59395e-38
-1.69835e-37
-1.0349e-39
-1.36797e-38
-3.7915e-39
-9.30665e-39
3.75569e-40
2.75507e-38
5.64025e-39
2.70073e-38
3.77696e-39
-1.25238e-38
-1.61238e-39
-2.95852e-38
-2.74115e-39
-1.55591e-38
4.71206e-40
1.19147e-38
2.75401e-39
1.50166e-38
1.77739e-39
3.11139e-39
3.72311e-40
6.20028e-40
5.34041e-41
9.03943e-41
-1.25248e-40
3.44255e-41
-6.76726e-40
1.65156e-40
-3.18906e-39
1.15304e-39
-3.79035e-39
5.61327e-39
1.52821e-39
2.69953e-38
4.67803e-39
9.32349e-39
1.27386e-40
-4.0695e-38
-3.94787e-39
-3.27888e-38
-1.61063e-39
-3.69058e-39
3.48583e-39
1.41073e-38
6.05506e-39
1.40532e-38
2.88028e-39
-1.15914e-38
-6.33464e-40
-1.18216e-38
7.53548e-40
1.26773e-38
2.87649e-39
1.53753e-38
2.15839e-39
4.42633e-39
5.47963e-40
-7.05757e-40
5.78196e-40
-3.36686e-40
3.11386e-39
-1.20436e-39
3.48581e-39
-5.63479e-39
-1.10617e-39
-2.6794e-38
-5.099e-40
-7.4039e-39
4.60878e-39
3.81543e-38
2.8994e-39
1.96451e-38
-8.46061e-40
5.89093e-40
1.26688e-39
3.66386e-38
-1.77291e-39
3.1903e-39
-1.88485e-38
-1.42224e-39
2.74744e-39
-7.71152e-40
-4.0715e-40
1.8253e-41
2.71679e-39
7.94839e-40
2.61587e-39
5.02641e-40
-1.2084e-39
-2.94271e-40
-2.86756e-39
-5.45843e-40
-1.5125e-39
-1.24084e-40
1.14606e-39
2.36318e-40
1.4567e-39
1.70211e-40
3.11659e-40
3.68477e-41
6.40013e-41
5.40133e-42
9.58593e-42
-1.2715e-41
3.71919e-42
-6.67986e-41
1.74753e-41
-3.04251e-40
1.18787e-40
-3.08475e-40
5.60452e-40
4.56719e-40
2.60948e-39
8.47411e-40
8.87801e-40
3.76612e-41
-3.93961e-39
-6.59962e-40
-3.18891e-39
-4.64136e-40
-3.7057e-40
1.6333e-40
1.36604e-39
5.26351e-40
1.37791e-39
1.0835e-40
-1.1095e-39
-3.43002e-40
-1.13522e-39
-9.54499e-41
1.22596e-39
2.48743e-40
1.49622e-39
2.07197e-40
4.55718e-40
5.44416e-41
-8.11975e-41
5.62742e-41
-3.69153e-41
2.90103e-40
-1.23427e-40
2.46299e-40
-5.53586e-40
-4.67321e-40
-2.55192e-39
-5.6505e-40
-5.44634e-40
2.51822e-40
3.72536e-39
2.32714e-40
1.9374e-39
-1.44078e-40
1.20511e-40
3.75875e-40
3.54454e-39
8.96295e-41
3.28574e-40
-1.81347e-39
-6.6597e-39
2.73997e-39
-8.78097e-40
2.62004e-40
-9.3354e-41
2.94169e-40
6.71827e-41
2.55605e-40
4.72729e-41
-1.16171e-40
-3.00861e-41
-2.76998e-40
-5.65e-41
-1.46435e-40
-1.62278e-41
1.10186e-40
1.96834e-41
1.40813e-40
1.48987e-41
3.07331e-41
3.30811e-42
6.46762e-42
4.9182e-43
9.87995e-43
-1.16155e-42
3.89194e-43
-5.98582e-42
1.79784e-42
-2.6552e-41
1.19865e-41
-2.50201e-41
5.51171e-41
4.96633e-41
2.51686e-40
8.63676e-41
8.48264e-41
4.15446e-42
-3.80459e-40
-6.64136e-41
-3.08757e-40
-5.04496e-41
-3.66828e-41
8.70178e-42
1.31594e-40
4.43002e-41
1.32784e-40
4.39941e-42
-1.0655e-40
-3.86581e-41
-1.09066e-40
-1.37364e-41
1.18287e-40
2.08488e-41
1.44757e-40
1.84513e-41
4.45489e-41
4.92666e-42
-7.46378e-42
4.8453e-42
-3.64536e-42
2.47903e-41
-1.22799e-41
1.75122e-41
-5.32649e-41
-5.29963e-41
-2.41185e-40
-6.456e-41
-2.91391e-41
1.6664e-41
3.64322e-40
1.89347e-41
1.89737e-40
-1.40235e-41
1.42283e-41
4.09658e-41
3.42203e-40
1.58306e-41
3.33953e-41
-1.73492e-40
-3.83665e-38
-7.58241e-39
-4.50356e-39
-8.1762e-40
-5.18763e-40
-5.73304e-41
-4.70651e-41
1.43822e-41
-1.13847e-42
-1.09089e-41
-3.23356e-42
-2.44054e-41
-5.20283e-42
-1.2899e-41
-1.57855e-42
9.63233e-42
1.66757e-42
1.23807e-41
1.29015e-42
2.75807e-42
2.91152e-43
5.91335e-43
4.37585e-44
9.19166e-44
-1.03598e-43
3.6646e-44
-5.26063e-43
1.67007e-43
-2.29484e-42
1.09449e-42
-2.09476e-42
4.93596e-42
4.60054e-42
2.20771e-41
7.84666e-42
7.36411e-42
3.88711e-43
-3.3408e-41
-6.01084e-42
-2.71939e-41
-4.66817e-42
-3.29602e-42
5.78012e-43
1.15602e-41
3.76935e-42
1.17727e-41
2.19942e-43
-9.27806e-42
-3.60808e-42
-9.52191e-42
-1.35332e-42
1.03813e-41
1.77225e-42
1.27588e-41
1.60217e-42
4.07549e-42
4.34118e-43
-7.36642e-43
4.16412e-43
-3.47566e-43
2.092e-42
-1.1122e-42
1.23311e-42
-4.67879e-42
-5.08319e-42
-2.07691e-41
-5.92909e-42
-8.83079e-43
1.41645e-42
3.23436e-41
1.62656e-42
1.69133e-41
-1.24419e-42
1.63208e-42
3.78529e-42
3.00452e-41
1.61679e-42
3.04883e-42
-1.51822e-41
2.18922e-40
-7.86682e-39
-7.89404e-41
-7.48842e-40
-2.09789e-41
-6.91237e-41
-2.54885e-42
-4.95213e-42
-4.88918e-44
-1.5054e-42
-2.66476e-43
-2.15567e-42
-4.272e-43
-1.11862e-42
-1.32269e-43
8.2751e-43
1.33158e-43
1.06836e-42
1.04235e-43
2.41405e-43
2.38725e-44
5.25394e-44
3.61674e-45
8.27436e-45
-8.58168e-45
3.33103e-45
-4.30848e-44
1.50156e-44
-1.85075e-43
9.71468e-44
-1.66219e-43
4.31287e-43
3.79213e-43
1.90198e-42
6.42036e-43
6.2985e-43
3.23518e-44
-2.88069e-42
-4.91489e-43
-2.34952e-42
-3.85417e-43
-2.89075e-43
4.09828e-44
9.95689e-43
3.02521e-43
1.016e-42
1.44897e-44
-7.96184e-43
-2.97232e-43
-8.1779e-43
-1.14124e-43
8.94666e-43
1.42009e-43
1.10212e-42
1.31027e-43
3.56405e-43
3.57429e-44
-6.33868e-44
3.28019e-44
-3.07479e-44
1.64875e-43
-9.73797e-44
8.20548e-44
-3.99429e-43
-4.30312e-43
-1.75011e-42
-4.79488e-43
9.78705e-44
1.20757e-43
2.82591e-42
1.32131e-43
1.47673e-42
-9.85928e-44
1.58474e-43
3.12643e-43
2.59042e-42
1.36476e-43
2.71538e-43
-1.30177e-42
3.61323e-38
8.65709e-40
3.74746e-39
7.00053e-40
3.73742e-40
8.71938e-41
3.47574e-41
8.69559e-42
3.13719e-42
6.74836e-43
2.45994e-43
-1.07631e-43
-1.19189e-44
-8.50904e-44
-8.85466e-45
6.68623e-44
1.0579e-44
8.61931e-44
8.24193e-45
1.97493e-44
1.90646e-45
4.3496e-45
2.90641e-46
6.9313e-46
-6.90702e-46
2.81265e-46
-3.43638e-45
1.25651e-45
-1.45975e-44
8.03489e-45
-1.29965e-44
3.52308e-44
3.01337e-44
1.53137e-43
5.08523e-44
5.03286e-44
2.58933e-45
-2.32111e-43
-3.89206e-44
-1.89724e-43
-3.06356e-44
-2.36578e-44
3.06798e-45
8.02808e-44
2.3794e-44
8.25012e-44
1.06236e-45
-6.37375e-44
-2.35773e-44
-6.56104e-44
-9.12947e-45
7.20689e-44
1.11651e-44
8.90619e-44
1.03883e-44
2.95813e-44
2.85389e-45
-5.56034e-45
2.54088e-45
-2.62643e-45
1.2676e-44
-7.97329e-45
5.04155e-45
-3.1925e-44
-3.52277e-44
-1.37942e-43
-3.70728e-44
2.03657e-44
1.05816e-44
2.30498e-43
1.06544e-44
1.20542e-43
-7.63351e-45
1.48008e-44
2.4834e-44
2.08736e-43
1.09193e-44
2.24511e-44
-1.0469e-43
-8.29436e-39
1.82553e-39
-8.98288e-40
6.92494e-40
-9.28277e-41
8.28863e-41
-8.91729e-42
8.11593e-42
-8.21709e-43
7.04891e-43
-7.32261e-44
4.59482e-44
-8.55901e-45
-2.38563e-45
-1.27968e-45
5.57317e-45
7.39979e-46
6.80366e-45
6.1321e-46
1.57159e-45
1.43873e-46
3.49221e-46
2.20655e-47
5.61528e-47
-5.25657e-47
2.29306e-47
-2.59592e-46
1.01693e-46
-1.09091e-45
6.44421e-46
-9.64371e-46
2.79726e-45
2.25846e-45
1.20293e-44
3.80286e-45
3.93081e-45
1.95388e-46
-1.82442e-44
-2.91144e-45
-1.49362e-44
-2.29975e-45
-1.88235e-45
2.20226e-46
6.30845e-45
1.77701e-45
6.50022e-45
8.1418e-47
-4.98878e-45
-1.76254e-45
-5.14079e-45
-6.88478e-46
5.66289e-45
8.32968e-46
7.01235e-45
7.84868e-46
2.35808e-45
2.16199e-46
-4.45264e-46
1.84335e-46
-2.11748e-46
9.2339e-46
-6.30769e-46
2.79027e-46
-2.47299e-45
-2.71114e-45
-1.05782e-44
-2.70422e-45
2.69951e-45
8.66333e-46
1.83645e-44
8.1198e-46
9.58389e-45
-5.54661e-46
1.26483e-45
1.86542e-45
1.64067e-44
8.18441e-46
1.80361e-45
-8.20142e-45
-7.86504e-38
-1.74289e-39
-8.24943e-39
-7.27777e-40
-8.32859e-40
-8.79625e-41
-7.82413e-41
-8.64909e-42
-7.09327e-42
-7.62069e-43
-6.08413e-43
-6.48051e-44
-5.0599e-44
-5.60397e-45
-4.0504e-45
-2.40213e-48
-2.49637e-46
4.77051e-46
2.23285e-47
1.16327e-46
8.97125e-48
2.63968e-47
1.51732e-48
4.29466e-48
-3.89081e-48
1.76683e-48
-1.90638e-47
7.79066e-48
-7.94425e-47
4.89607e-47
-6.9862e-47
2.10789e-46
1.64697e-46
8.9683e-46
2.76903e-46
2.91355e-46
1.43264e-47
-1.36091e-45
-2.12034e-46
-1.11599e-45
-1.67821e-46
-1.4198e-46
1.56799e-47
4.70972e-46
1.29286e-46
4.88083e-46
6.02964e-48
-3.70184e-46
-1.2826e-46
-3.82196e-46
-5.03372e-47
4.22368e-46
6.05766e-47
5.24328e-46
5.74765e-47
1.79979e-46
1.58795e-47
-3.54858e-47
1.30704e-47
-1.65075e-47
6.54013e-47
-4.73716e-47
1.27347e-47
-1.8193e-46
-2.03402e-46
-7.70031e-46
-1.91237e-46
2.78067e-46
6.96408e-47
1.38778e-45
6.0625e-47
7.23291e-46
-3.94552e-47
1.03977e-46
1.36129e-46
1.22401e-45
5.96547e-47
1.36976e-46
-6.11208e-46
-6.51218e-39
-1.32916e-39
-7.06287e-40
-7.79903e-40
-7.28719e-41
-9.64699e-41
-6.9942e-42
-9.55216e-42
-6.44116e-43
-8.43623e-43
-5.60912e-44
-7.0845e-44
-4.71684e-45
-5.67257e-45
-3.80857e-46
-4.05526e-46
-2.52401e-47
4.68475e-48
9.62825e-49
6.3712e-48
5.87853e-49
1.79701e-48
1.0401e-49
3.08693e-49
-2.74998e-49
1.31041e-49
-1.33974e-48
5.77799e-49
-5.53788e-48
3.60743e-48
-4.8453e-48
1.54278e-47
1.14917e-47
6.50901e-47
1.92936e-47
2.10478e-47
1.00475e-48
-9.88157e-47
-1.4779e-47
-8.11378e-47
-1.17268e-47
-1.04029e-47
1.06371e-48
3.42065e-47
9.01174e-48
3.55542e-47
4.38137e-49
-2.67784e-47
-8.92956e-48
-2.768e-47
-3.52703e-48
3.0663e-47
4.21878e-48
3.81335e-47
4.04327e-48
1.32456e-47
1.11735e-48
-2.64872e-48
8.79644e-49
-1.22783e-48
4.43187e-48
-3.44151e-48
3.81121e-49
-1.29696e-47
-1.45704e-47
-5.44433e-47
-1.29466e-47
2.61895e-47
5.28389e-48
1.02167e-46
4.32128e-48
5.30839e-47
-2.67464e-48
8.0503e-48
9.52046e-48
8.8881e-47
4.15513e-48
1.01003e-47
-4.42992e-47
3.83601e-38
3.97661e-39
4.01344e-39
2.82553e-40
4.0435e-40
2.19493e-41
3.79175e-41
1.8287e-42
3.43243e-42
1.5107e-43
2.93966e-43
1.23205e-44
2.43349e-44
9.63596e-46
1.92489e-45
7.55918e-47
1.47741e-46
7.95892e-48
1.10819e-47
9.93276e-49
8.28125e-49
1.64524e-49
6.16102e-50
2.44497e-50
-1.52042e-50
9.5011e-51
-9.1306e-50
4.10024e-50
-3.75915e-49
2.54373e-49
-3.27553e-49
1.0819e-48
7.80637e-49
4.52705e-48
1.30914e-48
1.45713e-48
6.85472e-50
-6.87536e-48
-1.00306e-48
-5.65282e-48
-7.97291e-49
-7.29778e-49
7.0836e-50
2.38238e-48
6.11499e-49
2.48828e-48
3.05074e-50
-1.855e-48
-6.05499e-49
-1.92079e-48
-2.40192e-49
2.13339e-48
2.86129e-49
2.65866e-48
2.76043e-49
9.3897e-49
7.63117e-50
-1.94578e-49
5.77168e-50
-8.84812e-50
2.91861e-49
-2.39576e-49
-1.02135e-50
-8.85977e-49
-1.01716e-48
-3.6875e-48
-8.50964e-49
2.22432e-48
3.90807e-49
7.2048e-48
3.00813e-49
3.73353e-48
-1.77166e-49
6.01157e-49
6.47592e-49
6.18518e-48
2.81915e-49
7.11906e-49
-3.08148e-48
7.05437e-39
4.7258e-39
7.6012e-40
4.64456e-40
7.8042e-41
4.32127e-41
7.45825e-42
3.91665e-42
6.84523e-43
3.3643e-43
5.94214e-44
2.79759e-44
4.97156e-45
2.2215e-45
3.9732e-46
1.71019e-46
3.07137e-47
1.28116e-47
2.29467e-48
9.48406e-49
1.67583e-49
7.23435e-50
1.19493e-50
5.80036e-51
-4.70295e-52
9.25163e-52
-5.9765e-51
2.83823e-51
-2.45932e-50
1.74155e-50
-2.13436e-50
7.37396e-50
5.11062e-50
3.06468e-49
8.56109e-50
9.82652e-50
4.50563e-51
-4.65591e-49
-6.56182e-50
-3.83219e-49
-5.22674e-50
-4.97606e-50
4.52734e-51
1.61433e-49
4.00139e-50
1.69124e-49
2.07104e-51
-1.25192e-49
-3.95694e-50
-1.29795e-49
-1.57824e-50
1.4446e-49
1.87087e-50
1.8032e-49
1.8204e-50
6.43993e-50
5.02533e-51
-1.35921e-50
3.62516e-51
-6.12818e-51
1.85085e-50
-1.61629e-50
-2.97601e-51
-5.87066e-50
-6.83357e-50
-2.42602e-49
-5.3899e-50
1.79302e-49
2.75962e-50
4.94767e-49
2.01462e-50
2.55413e-49
-1.12775e-50
4.28789e-50
4.2497e-50
4.189e-49
1.8423e-50
4.87528e-50
-2.08507e-49
6.77825e-41
4.23489e-39
8.43211e-42
4.12243e-40
9.67187e-43
3.80859e-41
1.00611e-43
3.43568e-42
9.87279e-45
2.93923e-43
9.04794e-46
2.43651e-44
7.90855e-47
1.92932e-45
6.55631e-48
1.48055e-46
5.23221e-49
1.09359e-47
4.06964e-50
7.85172e-49
3.14341e-51
5.4786e-50
2.40993e-52
3.74905e-51
-6.56119e-53
2.811e-52
-3.85291e-52
2.02049e-52
-1.56788e-51
1.14966e-51
-1.35588e-51
4.84646e-51
3.25944e-51
2.00099e-50
5.45499e-51
6.39179e-51
2.88358e-52
-3.04079e-50
-4.18225e-51
-2.50554e-50
-3.33672e-51
-3.27021e-51
2.83376e-52
1.05549e-50
2.55048e-51
1.11048e-50
1.35486e-52
-8.14534e-51
-2.51985e-51
-8.45855e-51
-1.00919e-51
9.435e-51
1.19186e-51
1.1798e-50
1.16705e-51
4.27303e-51
3.21715e-52
-9.29818e-52
2.21787e-52
-4.12043e-52
1.14126e-51
-1.05136e-51
-3.42152e-52
-3.74991e-51
-4.47476e-51
-1.53824e-50
-3.31738e-51
1.35462e-50
1.89709e-51
3.27614e-50
1.31681e-51
1.68518e-50
-7.00926e-52
2.95873e-51
2.71508e-51
2.73638e-50
1.17333e-51
3.21458e-51
-1.36213e-50
-6.01987e-39
-1.42489e-39
-6.40163e-40
-2.65448e-40
-6.49385e-41
-2.9798e-41
-6.1496e-42
-2.89562e-42
-5.59958e-43
-2.56412e-43
-4.83049e-44
-2.16502e-44
-4.02e-45
-1.73756e-45
-3.19896e-46
-1.34684e-46
-2.46234e-47
-1.00289e-47
-1.82399e-48
-7.23702e-49
-1.31006e-49
-5.04279e-50
-9.09745e-51
-3.41145e-51
-6.19115e-52
-2.21715e-52
-6.41852e-53
-2.31794e-54
-9.93631e-53
7.27887e-53
-8.35824e-53
3.099e-52
2.01301e-52
1.27262e-51
3.36608e-52
4.05205e-52
1.78672e-53
-1.93438e-51
-2.58161e-52
-1.59537e-51
-2.06349e-52
-2.09141e-52
1.71276e-53
6.72028e-52
1.57494e-52
7.09201e-52
8.64008e-54
-5.16551e-52
-1.55402e-52
-5.37109e-52
-6.25401e-53
6.00198e-52
7.35462e-53
7.5163e-52
7.25575e-53
2.75091e-52
1.9949e-53
-6.10634e-53
1.30616e-53
-2.6766e-53
6.8065e-53
-6.64072e-53
-3.04299e-53
-2.3266e-52
-2.83467e-52
-9.48166e-52
-1.97586e-52
9.83024e-52
1.25479e-52
2.11369e-51
8.3254e-53
1.08251e-51
-4.20983e-53
1.96588e-52
1.68097e-52
1.74098e-51
7.23382e-53
2.062e-52
-8.66432e-52
-3.28975e-38
-1.17457e-38
-3.39944e-39
-1.76128e-39
-3.39412e-40
-1.85817e-40
-3.15524e-41
-1.75692e-41
-2.83695e-42
-1.52835e-42
-2.41405e-43
-1.27529e-43
-1.98797e-44
-1.01292e-44
-1.56484e-45
-7.78672e-46
-1.19372e-46
-5.75355e-47
-8.763e-48
-4.12519e-48
-6.24502e-49
-2.85806e-49
-4.30356e-50
-1.92514e-50
-2.8846e-51
-1.2577e-51
-1.89045e-52
-7.92965e-53
-1.77151e-53
-3.7994e-55
-5.74099e-54
1.8903e-53
1.20808e-53
7.84004e-53
2.02554e-53
2.48891e-53
1.07907e-54
-1.19218e-52
-1.55414e-53
-9.84151e-53
-1.24412e-53
-1.29519e-53
1.01321e-54
4.14677e-53
9.48343e-54
4.39281e-53
5.33517e-55
-3.1729e-53
-9.34789e-54
-3.30428e-53
-3.77684e-54
3.69934e-53
4.42612e-54
4.64e-53
4.39294e-54
1.71901e-53
1.20454e-54
-3.91969e-54
7.49087e-55
-1.69118e-54
3.95058e-54
-4.06201e-54
-2.40809e-54
-1.39736e-53
-1.75154e-53
-5.65619e-53
-1.14473e-53
6.79944e-53
8.08258e-54
1.32103e-52
5.1386e-54
6.73691e-53
-2.46907e-54
1.26713e-53
1.01447e-53
1.07321e-52
4.35028e-54
1.27993e-53
-5.34338e-53
6.3305e-38
-9.82135e-39
6.69199e-39
-6.94206e-40
6.79069e-40
-5.389e-41
6.41229e-41
-4.4961e-42
5.83534e-42
-3.72416e-43
5.02283e-43
-3.04595e-44
4.17497e-44
-2.39393e-45
3.31542e-45
-1.82834e-46
2.5479e-46
-1.34357e-47
1.88349e-47
-9.58979e-49
1.35039e-48
-6.61577e-50
9.35869e-50
-4.43955e-51
6.30362e-51
-2.89016e-52
4.11838e-52
-1.82873e-53
2.58703e-53
-8.54653e-55
1.3305e-54
1.09112e-54
8.07674e-55
4.70802e-54
1.1906e-54
1.49127e-54
6.36674e-56
-7.16482e-54
-9.09262e-55
-5.91937e-54
-7.291e-55
-7.81633e-55
5.81366e-56
2.49474e-54
5.55093e-55
2.6507e-54
3.21392e-56
-1.90138e-54
-5.46463e-55
-1.98273e-54
-2.21761e-55
2.22333e-54
2.58901e-55
2.79249e-54
2.58698e-55
1.04475e-54
7.06837e-56
-2.4307e-55
4.15052e-56
-1.03635e-55
2.2247e-55
-2.41718e-55
-1.74483e-55
-8.16369e-55
-1.05096e-54
-3.28356e-54
-6.43676e-55
4.54478e-54
5.03599e-55
8.05269e-54
3.07977e-55
4.0871e-54
-1.40492e-55
7.90581e-55
5.95247e-55
6.45087e-54
2.5417e-55
7.74011e-55
-3.21266e-54
1.34883e-37
-4.34149e-40
1.41372e-38
2.08037e-39
1.42641e-39
2.7124e-40
1.3393e-40
2.71854e-41
1.21366e-41
2.4072e-42
1.04038e-42
2.0198e-43
8.61934e-44
1.60683e-44
6.82325e-45
1.23577e-45
5.22991e-46
9.13154e-47
3.85645e-47
6.54695e-48
2.75896e-48
4.53567e-49
1.90813e-49
3.05497e-50
1.28291e-50
1.99591e-51
8.3689e-52
1.27007e-52
5.31509e-53
7.87803e-54
3.27016e-54
5.42781e-55
2.38767e-55
3.03196e-55
7.93193e-56
8.84989e-56
4.29771e-57
-4.18482e-55
-5.19053e-56
-3.46083e-55
-4.17075e-56
-4.58355e-56
3.26531e-57
1.45929e-55
3.17212e-56
1.55592e-55
1.88135e-57
-1.10744e-55
-3.11939e-56
-1.15654e-55
-1.27069e-56
1.299e-55
1.47868e-56
1.63386e-55
1.486e-56
6.1793e-56
4.04539e-57
-1.47275e-56
2.23922e-57
-6.18804e-57
1.22034e-56
-1.39748e-56
-1.193e-56
-4.63091e-56
-6.15699e-56
-1.85028e-55
-3.52412e-56
2.9224e-55
3.05868e-56
4.7713e-55
1.80327e-56
2.41023e-55
-7.81052e-57
4.79663e-56
3.40903e-56
3.76942e-55
1.45011e-56
4.54605e-56
-1.87861e-55
-4.47365e-38
-8.22375e-39
-4.6769e-39
6.73872e-40
-4.70867e-40
1.17107e-40
-4.41293e-41
1.24419e-41
-3.99276e-42
1.11991e-42
-3.41807e-43
9.44391e-44
-2.82859e-44
7.52335e-45
-2.23693e-45
5.78791e-46
-1.71311e-46
4.27682e-47
-1.26226e-47
3.06603e-48
-9.02454e-49
2.12383e-49
-6.23789e-50
1.43031e-50
-4.19189e-51
9.34336e-52
-2.73333e-52
5.94458e-53
-1.73601e-53
3.6802e-54
-1.07364e-54
2.2605e-55
-6.24132e-56
2.87762e-56
-3.69711e-59
5.696e-57
-1.59436e-59
-2.3832e-56
-2.90366e-57
-1.97517e-56
-2.32595e-57
-2.62283e-57
1.78425e-58
8.33312e-57
1.76665e-57
8.91095e-57
1.0755e-58
-6.29963e-57
-1.73509e-57
-6.58768e-57
-7.09673e-58
7.40972e-57
8.23002e-58
9.3317e-57
8.32188e-58
3.56195e-57
2.25588e-58
-8.65841e-58
1.16974e-58
-3.59417e-58
6.50913e-58
-7.87348e-58
-7.73477e-58
-2.55874e-57
-3.5126e-57
-1.0157e-56
-1.87651e-57
1.82297e-56
1.80385e-57
2.76052e-56
1.02823e-57
1.38739e-56
-4.22499e-58
2.82733e-57
1.90295e-57
2.15038e-56
8.05982e-58
2.60504e-57
-1.07238e-56
-1.33764e-37
-2.613e-38
-1.39935e-38
-2.96454e-39
-1.40976e-39
-2.89124e-40
-1.32191e-40
-2.66047e-41
-1.1966e-41
-2.29142e-42
-1.02477e-42
-1.90436e-43
-8.48328e-44
-1.50937e-44
-6.71076e-45
-1.15878e-45
-5.1406e-46
-8.55267e-47
-3.78855e-47
-6.12654e-48
-2.70912e-48
-4.24106e-49
-1.87289e-49
-2.8546e-50
-1.25876e-50
-1.86381e-51
-8.20877e-52
-1.18531e-52
-5.21381e-53
-7.3333e-54
-3.22223e-54
-4.4242e-55
-1.94148e-55
-2.51786e-56
-1.12175e-56
-1.22385e-57
-6.45112e-58
-1.41126e-57
-1.94159e-58
-1.10347e-57
-1.28722e-58
-1.46486e-58
9.44322e-60
4.63818e-58
9.61695e-59
4.97597e-58
5.99023e-60
-3.49212e-58
-9.43493e-59
-3.65708e-58
-3.87306e-59
4.11934e-58
4.47782e-59
5.19462e-58
4.55256e-59
2.00237e-58
1.22871e-59
-4.97534e-59
5.94779e-60
-2.03737e-59
3.38466e-59
-4.32047e-59
-4.81556e-59
-1.37582e-58
-1.95877e-58
-5.42368e-58
-9.73719e-59
1.10035e-57
1.03824e-58
1.55647e-57
5.73304e-59
7.78286e-58
-2.23458e-59
1.624e-58
1.03815e-58
1.1956e-57
4.37934e-59
1.45387e-58
-5.96806e-58
4.72147e-38
-1.63532e-38
4.93307e-39
-1.32354e-39
4.96405e-40
-1.12041e-40
4.65049e-41
-9.75778e-42
4.20634e-42
-8.2459e-43
3.6e-43
-6.80948e-44
2.97852e-44
-5.38587e-45
2.3551e-45
-4.13178e-46
1.80335e-46
-3.04856e-47
1.3286e-47
-2.18332e-48
9.49795e-49
-1.51114e-49
6.56462e-50
-1.01697e-50
4.41118e-51
-6.639e-52
2.87617e-52
-4.22155e-53
1.82655e-53
-2.61146e-54
1.12869e-54
-1.57594e-55
6.80514e-56
-9.22721e-57
4.01132e-57
-5.18384e-58
2.30381e-58
-1.02062e-58
4.53599e-60
-6.13924e-59
-6.03346e-60
-8.05534e-60
5.36793e-61
2.52305e-59
5.11499e-60
2.71491e-59
3.26319e-61
-1.89275e-59
-5.00961e-60
-1.98482e-59
-2.06431e-60
2.23857e-59
2.37909e-60
2.82631e-59
2.43267e-60
1.09896e-59
6.53408e-61
-2.78293e-60
2.93115e-61
-1.12605e-60
1.71396e-60
-2.3139e-60
-2.88256e-60
-7.21423e-60
-1.06603e-59
-2.8239e-59
-4.92087e-60
6.46136e-59
5.81906e-60
8.57937e-59
3.11982e-60
4.26707e-59
-1.15252e-60
9.0872e-60
5.5312e-60
6.49787e-59
2.32309e-60
7.9273e-60
-3.24645e-59
1.32454e-37
-7.31968e-40
1.38368e-38
2.05536e-39
1.39276e-39
2.68686e-40
1.30471e-40
2.69329e-41
1.18021e-41
2.38364e-42
1.01e-42
1.99915e-43
8.35619e-44
1.58963e-44
6.6064e-45
1.22211e-45
5.05819e-46
9.02751e-47
3.72601e-47
6.47073e-48
2.66328e-48
4.4818e-49
1.84044e-49
3.01818e-50
1.23649e-50
1.97157e-51
8.06061e-52
1.25441e-52
5.118e-53
7.76429e-54
3.16195e-54
4.68847e-55
1.90582e-55
2.76074e-56
1.12027e-56
1.58877e-57
6.43358e-58
8.54086e-59
3.566e-59
1.73333e-60
1.63027e-60
-1.59892e-61
1.31928e-61
1.35481e-60
2.71606e-61
1.44772e-60
1.76335e-62