/*--------------------------------*- C++ -*----------------------------------*\
| =========                 |                                                 |
| \\      /  F ield         | OpenFOAM: The Open Source CFD Toolbox           |
|  \\    /   O peration     | Version:  2.4.0                                 |
|   \\  /    A nd           | Web:      www.OpenFOAM.org                      |
|    \\/     M anipulation  |                                                 |
\*---------------------------------------------------------------------------*/
FoamFile
{
    version     2.0;
    format      ascii;
    class       volVectorField;
    location    "0.75";
    object      U;
}
// * * * * * * * * * * * * * * * * * * * * * * * * * * * * * * * * * * * * * //

dimensions      [0 1 -1 0 0 0 0];

internalField   nonuniform List<vector> 
1935
(
(6.29639e-34 1.97291e-38 0)
(1.16107e-34 -6.14056e-35 0)
(2.29405e-35 -1.23843e-35 0)
(3.26826e-36 -8.84305e-36 0)
(-7.47217e-36 -6.04618e-35 0)
(-3.08072e-34 -5.86287e-34 0)
(-6.3625e-33 -4.39827e-33 0)
(-9.58833e-32 -3.75244e-32 0)
(-9.81134e-31 -1.63358e-31 0)
(-9.2623e-32 -1.44629e-30 0)
(1.87781e-32 -6.4141e-30 0)
(-4.23145e-33 -6.7583e-29 0)
(-5.18814e-32 1.46403e-30 0)
(-2.86643e-33 6.9204e-29 0)
(2.57752e-32 6.60684e-30 0)
(3.34314e-33 1.51977e-30 0)
(-1.19114e-36 3.25441e-31 0)
(-3.16634e-33 1.48766e-30 0)
(-2.45426e-32 5.47536e-30 0)
(3.84904e-32 6.85598e-29 0)
(8.94505e-32 -9.03126e-29 0)
(-3.0201e-32 -1.67117e-28 0)
(-9.00253e-32 -1.12389e-29 0)
(3.20386e-32 6.96893e-29 0)
(9.04308e-32 -9.48379e-29 0)
(-6.16787e-32 -1.71326e-28 0)
(-6.79143e-32 7.08979e-29 0)
(1.52412e-32 3.16003e-30 0)
(-1.29994e-31 5.31142e-31 0)
(-1.3728e-30 -9.99747e-30 0)
(-1.38025e-31 -9.33386e-29 0)
(-4.38013e-32 -8.93324e-30 0)
(-4.98026e-33 -2.00722e-30 0)
(-6.38509e-34 -2.278e-31 0)
(-2.00301e-37 -6.33023e-32 0)
(6.21696e-34 -2.11737e-31 0)
(4.23909e-33 -1.93104e-30 0)
(3.23861e-32 -7.22833e-30 0)
(-5.04278e-32 -9.04064e-29 0)
(-1.18225e-31 1.18298e-28 0)
(3.49408e-32 2.21349e-28 0)
(8.35756e-32 2.25243e-29 0)
(1.0704e-32 5.37155e-30 0)
(4.97902e-33 -2.2748e-38 0)
(3.77928e-32 -2.78258e-38 0)
(2.33082e-31 -7.32586e-39 0)
(1.61196e-30 -1.72065e-39 0)
(8.93646e-34 -5.43054e-34 0)
(6.44297e-33 -4.05621e-33 0)
(3.81533e-32 -2.97331e-32 0)
(2.35891e-31 -1.64205e-31 0)
(1.66553e-34 -1.00927e-34 0)
(1.11871e-33 -7.34e-34 0)
(5.86609e-33 -5.08799e-33 0)
(3.10982e-32 -2.67258e-32 0)
(2.14767e-35 -1.68744e-35 0)
(1.33062e-34 -1.3518e-34 0)
(6.46023e-34 -9.19474e-34 0)
(3.01522e-33 -4.51241e-33 0)
(-2.24252e-36 2.55016e-35 0)
(9.62388e-36 2.32413e-35 0)
(6.75052e-35 -1.02147e-34 0)
(3.09582e-34 -5.23557e-34 0)
(-2.73992e-34 2.54421e-34 0)
(-1.04914e-34 3.71834e-34 0)
(-4.96554e-35 7.28959e-35 0)
(1.60423e-35 -4.44776e-35 0)
(-5.96828e-33 1.45326e-33 0)
(-1.62294e-33 2.31172e-33 0)
(-5.91541e-34 5.0993e-34 0)
(-1.11553e-34 9.18339e-35 0)
(-9.20058e-32 9.75678e-33 0)
(-1.85503e-32 1.63824e-32 0)
(-4.53477e-33 3.11187e-33 0)
(-7.46834e-34 5.66913e-34 0)
(-9.47448e-31 -3.48621e-32 0)
(-1.34076e-31 -6.40617e-33 0)
(-3.07442e-32 -8.88575e-34 0)
(-4.52603e-33 -1.18403e-34 0)
(5.77666e-32 -2.89606e-31 0)
(1.44143e-32 -6.19226e-32 0)
(1.96497e-33 -8.74862e-33 0)
(1.99358e-34 -1.25729e-33 0)
(1.10748e-30 -1.1457e-30 0)
(2.05181e-31 -1.23439e-31 0)
(3.8119e-32 -9.59321e-33 0)
(5.2003e-33 -5.60946e-34 0)
(-1.80979e-31 -8.20454e-30 0)
(-3.92941e-32 -7.20244e-31 0)
(-7.78423e-33 -4.69667e-32 0)
(-1.13646e-33 -1.85358e-33 0)
(-2.306e-30 1.87182e-31 0)
(-4.30871e-31 1.72832e-32 0)
(-8.09922e-32 1.20489e-33 0)
(-1.1165e-32 5.86479e-35 0)
(-1.33615e-31 8.41979e-30 0)
(-3.02868e-32 7.40554e-31 0)
(-6.048e-33 4.83981e-32 0)
(-8.91395e-34 1.92124e-33 0)
(1.14197e-30 1.17866e-30 0)
(2.12359e-31 1.25499e-31 0)
(3.97719e-32 9.51262e-33 0)
(5.46336e-33 5.03429e-34 0)
(1.53768e-31 2.86774e-31 0)
(3.38612e-32 4.66922e-32 0)
(6.68235e-33 5.78209e-33 0)
(9.73674e-34 7.07804e-34 0)
(3.18194e-34 6.91722e-32 0)
(1.30298e-34 1.2552e-32 0)
(3.84312e-35 1.72274e-33 0)
(7.4157e-36 2.2705e-34 0)
(-1.41178e-31 2.74674e-31 0)
(-3.06826e-32 4.35012e-32 0)
(-5.92124e-33 5.22823e-33 0)
(-8.48045e-34 6.23247e-34 0)
(-1.07461e-30 9.5121e-31 0)
(-1.91869e-31 7.87614e-32 0)
(-3.52968e-32 2.80762e-33 0)
(-4.75078e-33 -4.16994e-34 0)
(1.72492e-30 7.76039e-30 0)
(3.34617e-31 6.28139e-31 0)
(6.37037e-32 3.58362e-32 0)
(8.9131e-33 6.32579e-34 0)
(3.97272e-30 -1.15349e-29 0)
(7.41183e-31 -1.06434e-30 0)
(1.39172e-31 -7.42254e-32 0)
(1.91656e-32 -3.64603e-33 0)
(-1.33669e-30 -2.07863e-29 0)
(-2.48402e-31 -1.86022e-30 0)
(-4.64759e-32 -1.24133e-31 0)
(-6.37821e-33 -5.26313e-33 0)
(-3.98821e-30 -2.05526e-30 0)
(-7.40966e-31 -2.63484e-31 0)
(-1.3874e-31 -2.62327e-32 0)
(-1.90528e-32 -2.5077e-33 0)
(1.41635e-30 7.62763e-30 0)
(2.62926e-31 5.63945e-31 0)
(4.91382e-32 2.50766e-32 0)
(6.73762e-33 -9.36317e-34 0)
(4.00243e-30 -1.20473e-29 0)
(7.3826e-31 -1.09776e-30 0)
(1.37941e-31 -7.49849e-32 0)
(1.88911e-32 -3.42164e-33 0)
(-2.73517e-30 -2.0949e-29 0)
(-5.04793e-31 -1.86855e-30 0)
(-9.45029e-32 -1.25552e-31 0)
(-1.29637e-32 -5.59417e-33 0)
(-3.00235e-30 7.67361e-30 0)
(-5.66381e-31 6.16972e-31 0)
(-1.06762e-31 3.65569e-32 0)
(-1.47698e-32 1.05368e-33 0)
(1.06036e-30 5.95486e-31 0)
(1.84437e-31 2.58285e-32 0)
(3.34102e-32 -3.50064e-33 0)
(4.42048e-33 -1.16049e-33 0)
(2.0967e-31 2.87934e-32 0)
(4.81099e-32 1.46347e-32 0)
(8.04635e-33 2.53106e-33 0)
(1.02853e-33 5.02167e-34 0)
(1.88329e-31 -1.71201e-30 0)
(9.61624e-32 -1.80886e-31 0)
(1.00362e-32 -1.38019e-32 0)
(9.57934e-34 -7.61603e-34 0)
(-1.52658e-31 -1.15055e-29 0)
(-3.04644e-32 -1.06179e-30 0)
(-7.23807e-33 -7.58443e-32 0)
(-1.17371e-33 -4.26617e-33 0)
(-1.55001e-30 -1.60437e-30 0)
(-2.90433e-31 -1.77391e-31 0)
(-5.50084e-32 -1.4449e-32 0)
(-7.63044e-33 -9.58801e-34 0)
(-2.10498e-31 -3.79334e-31 0)
(-4.65932e-32 -6.2259e-32 0)
(-9.29013e-33 -7.77093e-33 0)
(-1.36518e-33 -9.62038e-34 0)
(-3.29738e-32 -4.88206e-32 0)
(-7.62146e-33 -9.08228e-33 0)
(-1.6328e-33 -1.27354e-33 0)
(-2.51775e-34 -1.7177e-34 0)
(-1.08054e-34 -1.397e-32 0)
(-3.17962e-35 -2.87475e-33 0)
(-9.41596e-36 -4.33004e-34 0)
(-1.79014e-36 -6.22505e-35 0)
(3.20879e-32 -4.48791e-32 0)
(7.32564e-33 -8.06025e-33 0)
(1.54711e-33 -1.09687e-33 0)
(2.3557e-34 -1.43314e-34 0)
(1.89854e-31 -3.55445e-31 0)
(4.13646e-32 -5.59728e-32 0)
(8.01062e-33 -6.68467e-33 0)
(1.15075e-33 -7.91698e-34 0)
(1.41818e-30 -1.25569e-30 0)
(2.53309e-31 -1.04077e-31 0)
(4.66072e-32 -3.72509e-33 0)
(6.27433e-33 5.477e-34 0)
(-2.26072e-30 -1.02364e-29 0)
(-4.38793e-31 -8.2831e-31 0)
(-8.35684e-32 -4.71864e-32 0)
(-1.16969e-32 -8.16776e-34 0)
(-5.25561e-30 1.51279e-29 0)
(-9.81992e-31 1.39993e-30 0)
(-1.84578e-31 9.81838e-32 0)
(-2.54432e-32 4.91538e-33 0)
(1.54356e-30 2.76527e-29 0)
(2.80259e-31 2.50035e-30 0)
(5.21374e-32 1.69988e-31 0)
(7.09896e-33 7.74864e-33 0)
(3.7167e-30 4.05293e-30 0)
(7.00728e-31 4.6011e-31 0)
(1.32068e-31 3.88765e-32 0)
(1.82673e-32 2.77039e-33 0)
(4.82296e-31 1.03099e-30 0)
(1.07197e-31 1.61886e-31 0)
(2.1465e-32 1.93942e-32 0)
(3.16865e-33 2.27878e-33 0)
(7.03746e-30 -3.05662e-40 0)
(5.90701e-29 -6.45807e-41 0)
(5.34211e-29 6.75691e-41 0)
(-5.32017e-29 7.05935e-41 0)
(-5.75397e-29 -3.34615e-41 0)
(1.91332e-31 -7.65153e-41 0)
(5.90947e-29 -3.95986e-41 0)
(6.04061e-29 3.23918e-41 0)
(7.17394e-30 3.86731e-41 0)
(1.52418e-30 6.2925e-42 0)
(1.90889e-31 1.01857e-42 0)
(2.6953e-32 -3.19203e-43 0)
(-2.79959e-33 -5.56785e-42 0)
(-5.18136e-32 -6.63958e-41 0)
(-3.54551e-31 -7.51993e-40 0)
(-2.86013e-30 -7.45651e-39 0)
(-1.28475e-29 -5.7432e-38 0)
(-1.13796e-28 3.19749e-38 0)
(-5.90666e-29 1.31004e-35 0)
(5.33959e-29 3.61811e-34 0)
(6.47669e-29 6.47579e-33 0)
(6.19189e-29 8.64506e-32 0)
(8.86451e-30 7.96999e-31 0)
(8.76127e-30 8.64638e-32 0)
(6.07895e-29 6.8245e-33 0)
(6.06212e-29 6.47579e-33 0)
(7.19495e-30 7.9988e-32 0)
(1.53981e-30 7.10548e-31 0)
(2.09052e-31 -7.10548e-31 0)
(7.32003e-32 -7.99615e-32 0)
(3.82189e-31 -5.74314e-33 0)
(3.03443e-30 6.2898e-33 0)
(1.42719e-29 8.86225e-32 0)
(1.19988e-28 8.17383e-31 0)
(1.16646e-28 9.50982e-32 0)
(-3.48569e-29 9.30758e-32 0)
(4.92478e-29 7.97018e-31 0)
(-6.7998e-30 8.03307e-32 0)
(-1.08082e-28 -7.37331e-32 0)
(-1.13595e-29 -7.10837e-31 0)
(9.70623e-31 -9.64708e-31 0)
(5.73819e-30 -7.05847e-31 0)
(4.96759e-30 1.84513e-30 0)
(-4.93141e-30 1.82348e-30 0)
(-5.5137e-30 -8.58606e-31 0)
(3.14031e-32 -1.95426e-30 0)
(5.74236e-30 -1.00845e-30 0)
(5.93074e-30 8.34424e-31 0)
(9.94104e-31 9.86536e-31 0)
(2.2337e-31 1.52392e-31 0)
(3.13211e-32 2.44982e-32 0)
(4.58415e-33 2.95557e-33 0)
(-5.01095e-34 9.94028e-34 0)
(-8.79728e-33 5.47223e-33 0)
(-5.80082e-32 4.61291e-32 0)
(-4.15895e-31 2.80593e-31 0)
(-1.76886e-30 1.82316e-30 0)
(-1.0893e-29 7.03292e-31 0)
(-5.73761e-30 -2.72858e-30 0)
(4.96305e-30 -2.10982e-30 0)
(6.51517e-30 -1.76273e-31 0)
(6.14118e-30 9.50922e-31 0)
(1.24465e-30 9.41317e-31 0)
(1.23916e-30 -8.21286e-31 0)
(5.99512e-30 -8.32422e-31 0)
(5.96502e-30 8.62822e-31 0)
(9.88475e-31 1.00161e-30 0)
(2.37069e-31 2.25447e-31 0)
(4.54648e-32 -4.89038e-32 0)
(3.1623e-33 -1.47169e-32 0)
(6.09589e-32 -4.92574e-32 0)
(4.42139e-31 -2.96603e-31 0)
(1.9627e-30 -1.87073e-30 0)
(1.17522e-29 -7.90633e-31 0)
(1.13191e-29 2.54011e-30 0)
(-2.42552e-30 1.18386e-30 0)
(4.41277e-30 -2.05372e-31 0)
(-9.20099e-31 2.5062e-30 0)
(-1.01002e-29 1.28588e-31 0)
(-1.53173e-30 -1.40548e-30 0)
(8.51364e-32 -1.35009e-31 0)
(3.70484e-31 -9.30536e-32 0)
(3.11889e-31 2.56716e-31 0)
(-3.06172e-31 2.53037e-31 0)
(-3.40272e-31 -1.18005e-31 0)
(4.87359e-33 -2.74262e-31 0)
(3.71174e-31 -1.4244e-31 0)
(3.95652e-31 1.1387e-31 0)
(8.85577e-32 1.38713e-31 0)
(2.99678e-32 2.48957e-32 0)
(4.85731e-33 4.19431e-33 0)
(8.00656e-34 5.36396e-34 0)
(-9.31793e-35 1.84929e-34 0)
(-1.53376e-33 9.90523e-34 0)
(-8.90426e-33 7.86911e-33 0)
(-5.51662e-32 4.5654e-32 0)
(-1.47843e-31 2.52979e-31 0)
(-7.06592e-31 9.25799e-32 0)
(-3.7034e-31 -3.78977e-31 0)
(3.11096e-31 -2.99707e-31 0)
(4.30145e-31 -2.8805e-32 0)
(4.23809e-31 1.33207e-31 0)
(1.22662e-31 1.3502e-31 0)
(1.21863e-31 -1.1103e-31 0)
(4.05649e-31 -1.13305e-31 0)
(4.01047e-31 1.18946e-31 0)
(8.80076e-32 1.41729e-31 0)
(3.19247e-32 3.97069e-32 0)
(6.89268e-33 -1.06806e-32 0)
(9.48755e-34 -2.94189e-33 0)
(9.15356e-33 -8.55139e-33 0)
(5.74047e-32 -4.82115e-32 0)
(1.62051e-31 -2.61687e-31 0)
(7.78798e-31 -1.30287e-31 0)
(7.74787e-31 3.47628e-31 0)
(-1.02827e-31 1.72087e-31 0)
(2.82171e-31 -7.97921e-33 0)
(-7.8122e-32 3.43711e-31 0)
(-6.51016e-31 2.07101e-32 0)
(-1.48208e-31 -1.88667e-31 0)
(5.61652e-33 -2.15225e-32 0)
(1.68714e-32 -1.45733e-32 0)
(1.3831e-32 4.09927e-32 0)
(-1.31882e-32 4.03295e-32 0)
(-1.38919e-32 -1.87797e-32 0)
(5.41344e-34 -4.38614e-32 0)
(1.69516e-32 -2.28855e-32 0)
(1.92847e-32 1.80302e-32 0)
(5.98523e-33 2.22132e-32 0)
(2.94699e-33 4.19326e-33 0)
(5.39208e-34 7.61147e-34 0)
(9.57712e-35 1.02573e-34 0)
(-1.17086e-35 3.69396e-35 0)
(-1.83177e-34 1.8858e-34 0)
(-9.81389e-34 1.42319e-33 0)
(-5.36578e-33 7.63672e-33 0)
(-9.10591e-33 4.03177e-32 0)
(-3.3001e-32 1.44852e-32 0)
(-1.68518e-32 -6.05454e-32 0)
(1.37333e-32 -4.81613e-32 0)
(2.00219e-32 -4.91869e-33 0)
(2.1956e-32 2.10668e-32 0)
(9.38564e-33 2.0699e-32 0)
(9.38983e-33 -1.76627e-32 0)
(2.04073e-32 -1.794e-32 0)
(1.98811e-32 1.89418e-32 0)
(5.87473e-33 2.26324e-32 0)
(3.24125e-33 5.86738e-33 0)
(8.42971e-34 -9.25296e-34 0)
(6.56349e-35 -4.00981e-34 0)
(9.83878e-34 -1.50984e-33 0)
(5.50178e-33 -7.91782e-33 0)
(9.93795e-33 -4.11227e-32 0)
(3.75387e-32 -1.66327e-32 0)
(4.01838e-32 5.59579e-32 0)
(-1.34223e-33 2.79809e-32 0)
(1.36237e-32 -1.22564e-33 0)
(-4.80057e-33 5.47251e-32 0)
(-3.06231e-32 3.90223e-33 0)
(-1.12927e-32 -2.89193e-32 0)
(3.45271e-34 -2.35205e-33 0)
(2.61295e-34 -1.55103e-33 0)
(1.8199e-34 4.47875e-33 0)
(-1.07936e-34 4.39824e-33 0)
(5.07348e-35 -2.04144e-33 0)
(6.16633e-35 -4.80663e-33 0)
(2.70821e-34 -2.51898e-33 0)
(5.08201e-34 1.95002e-33 0)
(3.86653e-34 2.43731e-33 0)
(3.07757e-34 4.88634e-34 0)
(6.13833e-35 9.295e-35 0)
(1.16444e-35 1.30847e-35 0)
(-1.47576e-36 4.84628e-36 0)
(-2.2249e-35 2.39814e-35 0)
(-1.10959e-34 1.73282e-34 0)
(-5.55513e-34 8.85801e-34 0)
(-4.75508e-34 4.3967e-33 0)
(-6.76117e-34 1.53991e-33 0)
(-2.58649e-34 -6.61463e-33 0)
(1.70118e-34 -5.30857e-33 0)
(3.53867e-34 -5.75085e-34 0)
(7.85828e-34 2.3052e-33 0)
(7.45401e-34 2.30797e-33 0)
(7.46627e-34 -1.89728e-33 0)
(6.36055e-34 -1.93612e-33 0)
(5.76842e-34 2.06414e-33 0)
(3.7641e-34 2.49464e-33 0)
(3.40248e-34 7.18137e-34 0)
(9.50159e-35 -1.38133e-34 0)
(1.07209e-35 -5.46345e-35 0)
(1.0866e-34 -1.84186e-34 0)
(5.55432e-34 -9.09227e-34 0)
(4.73446e-34 -4.45144e-33 0)
(9.24746e-34 -1.67023e-33 0)
(1.50976e-33 6.12546e-33 0)
(4.30271e-34 3.13726e-33 0)
(3.98952e-34 4.47833e-35 0)
(-2.59847e-34 5.96078e-33 0)
(-7.06693e-34 4.71214e-34 0)
(-9.01466e-34 -3.12084e-33 0)
(1.85769e-35 -2.66752e-34 0)
(-3.86782e-35 -1.75157e-34 0)
(-3.49656e-35 5.13459e-34 0)
(4.22605e-35 5.0352e-34 0)
(6.72923e-35 -2.33533e-34 0)
(6.06902e-36 -5.51466e-34 0)
(-3.73868e-35 -2.89944e-34 0)
(-1.58556e-35 2.22244e-34 0)
(2.5008e-35 2.79888e-34 0)
(2.84843e-35 5.78189e-35 0)
(6.03872e-36 1.14895e-35 0)
(1.19283e-36 1.67066e-36 0)
(-1.55542e-37 6.35081e-37 0)
(-2.27719e-36 3.05306e-36 0)
(-1.08671e-35 2.13706e-35 0)
(-5.10752e-35 1.04342e-34 0)
(-2.25463e-35 5.03315e-34 0)
(5.22293e-35 1.74069e-34 0)
(3.86339e-35 -7.5864e-34 0)
(-3.61596e-35 -6.1099e-34 0)
(-4.05214e-35 -6.85678e-35 0)
(9.23743e-36 2.62977e-34 0)
(5.84691e-35 2.61649e-34 0)
(5.91408e-35 -2.16313e-34 0)
(-3.19597e-36 -2.20541e-34 0)
(-9.10805e-36 2.36353e-34 0)
(2.37445e-35 2.86487e-34 0)
(3.21266e-35 8.20161e-35 0)
(9.79668e-36 -1.29083e-35 0)
(8.4661e-37 -6.19703e-36 0)
(1.03839e-35 -2.23306e-35 0)
(5.00978e-35 -1.0489e-34 0)
(1.76085e-35 -5.00185e-34 0)
(-3.90941e-35 -1.40818e-34 0)
(2.91902e-35 7.10764e-34 0)
(6.0328e-35 3.65608e-34 0)
(-4.01191e-36 9.84098e-36 0)
(-1.24215e-35 6.83062e-34 0)
(3.70285e-35 5.91355e-35 0)
(-7.14644e-35 -3.51555e-34 0)
(-1.85649e-35 -1.29388e-35 0)
(-9.05991e-36 -1.51237e-35 0)
(-5.91848e-36 4.98335e-35 0)
(6.27301e-36 4.86615e-35 0)
(9.16545e-36 -2.25245e-35 0)
(5.9753e-37 -5.3424e-35 0)
(-6.31327e-36 -2.81727e-35 0)
(-4.28885e-36 2.13605e-35 0)
(1.87873e-36 2.71371e-35 0)
(2.71136e-36 5.79555e-36 0)
(5.94706e-37 1.18741e-36 0)
(1.21002e-37 1.77514e-37 0)
(-1.60895e-38 6.87705e-38 0)
(-2.3088e-37 3.23668e-37 0)
(-1.06658e-36 2.20416e-36 0)
(-4.84302e-36 1.04247e-35 0)
(-1.14861e-36 4.86221e-35 0)
(1.00196e-35 1.6556e-35 0)
(6.43996e-36 -7.33978e-35 0)
(-5.70845e-36 -5.93982e-35 0)
(-7.11024e-36 -6.88848e-36 0)
(-1.90486e-36 2.54566e-35 0)
(5.07729e-36 2.5679e-35 0)
(5.14624e-36 -2.06805e-35 0)
(-3.04171e-36 -2.11596e-35 0)
(-3.62055e-36 2.28424e-35 0)
(1.76659e-36 2.78717e-35 0)
(3.06485e-36 8.48324e-36 0)
(9.59615e-37 -1.52141e-36 0)
(9.78248e-38 -6.86754e-37 0)
(9.9521e-37 -2.29338e-36 0)
(4.63958e-36 -1.03175e-35 0)
(1.4438e-37 -4.76361e-35 0)
(-9.22135e-36 -1.05593e-35 0)
(-1.75385e-36 6.93267e-35 0)
(6.64509e-36 3.605e-35 0)
(-2.12499e-36 2.20343e-36 0)
(-6.73504e-37 6.60392e-35 0)
(7.97427e-36 6.09234e-36 0)
(-6.23336e-36 -3.38163e-35 0)
(-1.1455e-34 6.91121e-35 0)
(-1.48039e-35 6.79926e-36 0)
(-2.25167e-36 5.71314e-36 0)
(4.3842e-37 4.82177e-36 0)
(8.66496e-37 -2.18204e-36 0)
(5.17042e-38 -5.20532e-36 0)
(-6.36078e-37 -2.7514e-36 0)
(-4.61344e-37 2.07156e-36 0)
(1.46144e-37 2.64609e-36 0)
(2.36175e-37 5.7653e-37 0)
(5.32082e-38 1.21136e-37 0)
(1.10466e-38 1.8477e-38 0)
(-1.49375e-39 7.27088e-39 0)
(-2.10674e-38 3.36268e-38 0)
(-9.51975e-38 2.24528e-37 0)
(-4.20533e-37 1.03414e-36 0)
(-6.54423e-38 4.73049e-36 0)
(1.03007e-36 1.59569e-36 0)
(6.47479e-37 -7.1502e-36 0)
(-5.66786e-37 -5.8012e-36 0)
(-7.23191e-37 -6.88078e-37 0)
(-2.56711e-37 2.473e-36 0)
(4.25729e-37 2.49336e-36 0)
(4.34731e-37 -2.00386e-36 0)
(-3.4928e-37 -2.05072e-36 0)
(-4.01593e-37 2.22313e-36 0)
(1.34786e-37 2.71965e-36 0)
(2.70169e-37 8.34233e-37 0)
(8.82184e-38 -1.38732e-37 0)
(7.47405e-39 -6.80047e-38 0)
(8.66381e-38 -2.30172e-37 0)
(3.94874e-37 -1.00094e-36 0)
(-5.4728e-38 -4.53972e-36 0)
(-9.7464e-37 -5.7608e-37 0)
(-2.79335e-37 6.84093e-36 0)
(6.03006e-37 3.5614e-36 0)
(-2.35231e-37 2.605e-37 0)
(-3.71535e-38 6.43129e-36 0)
(8.32848e-37 6.25581e-37 0)
(-5.25365e-37 -3.26139e-36 0)
(-6.66913e-34 -1.30916e-35 0)
(-7.82948e-35 -1.44241e-36 0)
(-9.17967e-36 3.01344e-37 0)
(-8.96463e-37 4.04248e-37 0)
(-1.77011e-38 -1.9315e-37 0)
(-4.41192e-39 -4.58093e-37 0)
(-5.83947e-38 -2.42561e-37 0)
(-4.26619e-38 1.81281e-37 0)
(1.20011e-38 2.32922e-37 0)
(2.03887e-38 5.18288e-38 0)
(4.67042e-39 1.10983e-38 0)
(9.8473e-40 1.72323e-39 0)
(-1.34792e-40 6.86463e-40 0)
(-1.87743e-39 3.13133e-39 0)
(-8.34049e-39 2.05433e-38 0)
(-3.62331e-38 9.27683e-38 0)
(-4.45435e-39 4.15395e-37 0)
(9.38124e-38 1.38641e-37 0)
(5.85963e-38 -6.28551e-37 0)
(-5.10462e-38 -5.11555e-37 0)
(-6.57046e-38 -6.1927e-38 0)
(-2.49671e-38 2.17519e-37 0)
(3.61941e-38 2.21491e-37 0)
(3.70195e-38 -1.74626e-37 0)
(-3.27475e-38 -1.79205e-37 0)
(-3.73337e-38 1.95327e-37 0)
(1.10477e-38 2.40016e-37 0)
(2.33754e-38 7.65993e-38 0)
(7.74415e-39 -1.38704e-38 0)
(6.87894e-40 -6.52724e-39 0)
(7.40024e-39 -2.08996e-38 0)
(3.32334e-38 -8.81001e-38 0)
(-9.28223e-39 -3.91475e-37 0)
(-8.94506e-38 -1.96898e-38 0)
(-2.57125e-38 6.07873e-37 0)
(5.32247e-38 3.17894e-37 0)
(-2.16313e-38 3.04077e-38 0)
(-2.53505e-39 5.65288e-37 0)
(7.60582e-38 5.72083e-38 0)
(-4.46547e-38 -2.85779e-37 0)
(5.42696e-36 -1.41936e-34 0)
(-1.17476e-36 -1.52744e-35 0)
(-3.58533e-37 -1.4735e-36 0)
(-4.89489e-38 -1.10195e-37 0)
(-5.58425e-40 -2.98896e-38 0)
(-3.91219e-40 -4.08921e-38 0)
(-4.78465e-39 -2.1168e-38 0)
(-3.51303e-39 1.56587e-38 0)
(9.43916e-40 2.02106e-38 0)
(1.64246e-39 4.56177e-39 0)
(3.82151e-40 9.91909e-40 0)
(8.15344e-41 1.5607e-40 0)
(-1.1285e-41 6.27897e-41 0)
(-1.554e-40 2.83245e-40 0)
(-6.81452e-40 1.8342e-39 0)
(-2.91334e-39 8.15082e-39 0)
(-3.15199e-40 3.59852e-38 0)
(7.6808e-39 1.19235e-38 0)
(4.78972e-39 -5.4499e-38 0)
(-4.16134e-39 -4.44427e-38 0)
(-5.38504e-39 -5.46242e-39 0)
(-2.10106e-39 1.88361e-38 0)
(2.89709e-39 1.92096e-38 0)
(2.9789e-39 -1.50703e-38 0)
(-2.69746e-39 -1.54766e-38 0)
(-3.0758e-39 1.69263e-38 0)
(8.5912e-40 2.08461e-38 0)
(1.89917e-39 6.72692e-39 0)
(6.45812e-40 -1.19073e-39 0)
(4.84366e-41 -5.78977e-40 0)
(5.88688e-40 -1.83997e-39 0)
(2.61373e-39 -7.56096e-39 0)
(-1.01995e-39 -3.31634e-38 0)
(-7.33818e-39 1.63464e-39 0)
(-1.97512e-39 5.34139e-38 0)
(4.32064e-39 2.79105e-38 0)
(-1.7542e-39 2.96138e-39 0)
(-1.60807e-40 4.90072e-38 0)
(6.23339e-39 5.12703e-39 0)
(-3.58256e-39 -2.46312e-38 0)
(6.35664e-34 -1.89066e-35 0)
(6.6148e-35 -3.61984e-38 0)
(6.64041e-36 6.02219e-38 0)
(6.18934e-37 8.94544e-39 0)
(5.61731e-38 -8.89353e-40 0)
(4.7617e-39 -3.18201e-39 0)
(1.63456e-41 -1.70292e-39 0)
(-2.47851e-40 1.26034e-39 0)
(7.58634e-41 1.6328e-39 0)
(1.29617e-40 3.7391e-40 0)
(3.0469e-41 8.22956e-41 0)
(6.56086e-42 1.31053e-41 0)
(-9.15624e-43 5.31544e-42 0)
(-1.25002e-41 2.37592e-41 0)
(-5.4246e-41 1.52035e-40 0)
(-2.29288e-40 6.6714e-40 0)
(-2.31491e-41 2.90214e-39 0)
(6.08448e-40 9.54188e-40 0)
(3.79275e-40 -4.39859e-39 0)
(-3.28982e-40 -3.59492e-39 0)
(-4.26989e-40 -4.47919e-40 0)
(-1.68059e-40 1.52139e-39 0)
(2.2765e-40 1.56319e-39 0)
(2.3451e-40 -1.20821e-39 0)
(-2.13876e-40 -1.24363e-39 0)
(-2.44076e-40 1.36577e-39 0)
(6.67504e-41 1.68755e-39 0)
(1.50114e-40 5.60025e-40 0)
(5.16629e-41 -1.05256e-40 0)
(3.76935e-42 -4.96839e-41 0)
(4.55831e-41 -1.51026e-40 0)
(2.00629e-40 -6.05638e-40 0)
(-1.02705e-40 -2.61875e-39 0)
(-5.81537e-40 3.66389e-40 0)
(-1.38542e-40 4.36365e-39 0)
(3.44072e-40 2.28238e-39 0)
(-1.37127e-40 2.78725e-40 0)
(-1.11418e-41 3.95562e-39 0)
(4.93503e-40 4.24759e-40 0)
(-2.81413e-40 -1.98442e-39 0)
(-1.45301e-34 3.66066e-35 0)
(-1.58033e-35 1.43493e-35 0)
(-1.6445e-36 1.72251e-36 0)
(-1.58529e-37 1.68842e-37 0)
(-1.46747e-38 1.46868e-38 0)
(-1.28567e-39 9.81425e-40 0)
(-1.36631e-40 -3.68154e-41 0)
(-2.96137e-41 1.06701e-40 0)
(4.75796e-42 1.29476e-40 0)
(9.61494e-42 2.98779e-41 0)
(2.29568e-42 6.63485e-42 0)
(4.98816e-43 1.06618e-42 0)
(-7.0229e-44 4.35209e-43 0)
(-9.50775e-43 1.93093e-42 0)
(-4.09139e-42 1.22435e-41 0)
(-1.70977e-41 5.31769e-41 0)
(-1.63361e-42 2.28855e-40 0)
(4.55005e-41 7.48136e-41 0)
(2.8364e-41 -3.47079e-40 0)
(-2.45688e-41 -2.84114e-40 0)
(-3.19812e-41 -3.57817e-41 0)
(-1.26876e-41 1.20005e-40 0)
(1.69652e-41 1.23601e-40 0)
(1.75504e-41 -9.49423e-41 0)
(-1.5969e-41 -9.78218e-41 0)
(-1.82656e-41 1.07732e-40 0)
(4.89299e-42 1.33381e-40 0)
(1.12861e-41 4.47856e-41 0)
(3.95874e-42 -8.42862e-42 0)
(2.40584e-43 -4.01524e-42 0)
(3.33982e-42 -1.19937e-41 0)
(1.45955e-41 -4.70904e-41 0)
(-9.1759e-42 -2.01576e-40 0)
(-4.34837e-41 5.00014e-41 0)
(-9.04149e-42 3.49052e-40 0)
(2.58686e-41 1.82175e-40 0)
(-1.00972e-41 2.38877e-41 0)
(-6.7618e-43 3.12119e-40 0)
(3.69089e-41 3.42684e-41 0)
(-2.1012e-41 -1.56034e-40 0)
(-1.38221e-33 7.17554e-37 0)
(-1.45448e-34 -1.90744e-37 0)
(-1.47841e-35 -2.78475e-38 0)
(-1.39284e-36 -2.906e-39 0)
(-1.26867e-37 -2.74861e-40 0)
(-1.09082e-38 -4.1983e-41 0)
(-9.09274e-40 -1.19605e-41 0)
(-7.35295e-41 7.24649e-42 0)
(-5.14307e-42 9.62986e-42 0)
(2.94269e-43 2.25421e-42 0)
(1.39426e-43 5.05212e-43 0)
(3.48264e-44 8.19032e-44 0)
(-5.35492e-45 3.36225e-44 0)
(-7.02179e-44 1.48256e-43 0)
(-3.00067e-43 9.32146e-43 0)
(-1.24298e-42 4.01501e-42 0)
(-1.1398e-43 1.70922e-41 0)
(3.31296e-42 5.55451e-42 0)
(2.06545e-42 -2.59359e-41 0)
(-1.78718e-42 -2.12665e-41 0)
(-2.33124e-42 -2.70415e-42 0)
(-9.28421e-43 8.97558e-42 0)
(1.23298e-42 9.29989e-42 0)
(1.27819e-42 -7.05669e-42 0)
(-1.16107e-42 -7.2851e-42 0)
(-1.33017e-42 8.04952e-42 0)
(3.52448e-43 9.99146e-42 0)
(8.24155e-43 3.42693e-42 0)
(2.92234e-43 -6.75094e-43 0)
(1.61997e-44 -3.14095e-43 0)
(2.37672e-43 -9.02768e-43 0)
(1.03264e-42 -3.4715e-42 0)
(-7.8529e-43 -1.47014e-41 0)
(-3.16546e-42 5.19188e-42 0)
(-5.49017e-43 2.6423e-41 0)
(1.90168e-42 1.37743e-41 0)
(-7.24133e-43 1.97275e-42 0)
(-4.22209e-44 2.33268e-41 0)
(2.68631e-42 2.60769e-42 0)
(-1.52762e-42 -1.16498e-41 0)
(-1.14061e-34 -3.63521e-35 0)
(-1.24274e-35 -1.46891e-35 0)
(-1.29107e-36 -1.77061e-36 0)
(-1.24345e-37 -1.7393e-37 0)
(-1.15062e-38 -1.53062e-38 0)
(-1.00476e-39 -1.283e-39 0)
(-8.47195e-41 -1.02617e-40 0)
(-6.8976e-42 -7.2956e-42 0)
(-4.99936e-43 1.23775e-43 0)
(9.68746e-45 1.24176e-43 0)
(9.01386e-45 3.4488e-44 0)
(2.40424e-45 5.90404e-45 0)
(-3.84013e-46 2.50147e-45 0)
(-4.95739e-45 1.10295e-44 0)
(-2.10649e-44 6.88895e-44 0)
(-8.64997e-44 2.94726e-43 0)
(-7.61246e-45 1.24413e-42 0)
(2.3082e-43 4.02431e-43 0)
(1.43927e-43 -1.88872e-42 0)
(-1.24411e-43 -1.5507e-42 0)
(-1.62648e-43 -1.98728e-43 0)
(-6.51256e-44 6.53764e-43 0)
(8.57865e-44 6.793e-43 0)
(8.92521e-44 -5.1198e-43 0)
(-8.0742e-44 -5.29155e-43 0)
(-9.27004e-44 5.86079e-43 0)
(2.41935e-44 7.28768e-43 0)
(5.77495e-44 2.52852e-43 0)
(2.07845e-44 -5.04367e-44 0)
(9.18138e-46 -2.34122e-44 0)
(1.61675e-44 -6.5776e-44 0)
(6.99144e-44 -2.48185e-43 0)
(-6.25117e-44 -1.0424e-42 0)
(-2.20495e-43 4.93392e-43 0)
(-3.09725e-44 1.95105e-42 0)
(1.33604e-43 1.0139e-42 0)
(-4.96696e-44 1.53123e-43 0)
(-2.28109e-45 1.69881e-42 0)
(1.87201e-43 1.92887e-43 0)
(-1.06494e-43 -8.46725e-43 0)
(6.74308e-34 9.17649e-36 0)
(7.07759e-35 -1.2565e-36 0)
(7.17875e-36 -2.01786e-37 0)
(6.7509e-37 -2.13699e-38 0)
(6.13976e-38 -1.94229e-39 0)
(5.27186e-39 -1.65473e-40 0)
(4.37949e-40 -1.33629e-41 0)
(3.47185e-41 -9.95653e-43 0)
(2.66931e-42 -2.79924e-44 0)
(2.00319e-43 6.08719e-45 0)
(1.49286e-44 2.25306e-45 0)
(1.15637e-45 4.07401e-46 0)
(4.03103e-47 1.7775e-46 0)
(-3.35627e-46 7.83983e-46 0)
(-1.43785e-45 4.86682e-45 0)
(-5.8637e-45 2.07057e-44 0)
(-4.98484e-46 8.66773e-44 0)
(1.56611e-44 2.79058e-44 0)
(9.76678e-45 -1.31636e-43 0)
(-8.43536e-45 -1.08222e-43 0)
(-1.10475e-44 -1.39663e-44 0)
(-4.43863e-45 4.56116e-44 0)
(5.8145e-45 4.76302e-44 0)
(6.06287e-45 -3.55236e-44 0)
(-5.47032e-45 -3.67807e-44 0)
(-6.29053e-45 4.08464e-44 0)
(1.62519e-45 5.08981e-44 0)
(3.9324e-45 1.79633e-44 0)
(1.4293e-45 -3.71821e-45 0)
(5.2935e-47 -1.69167e-45 0)
(1.06812e-45 -4.58806e-45 0)
(4.60082e-45 -1.69863e-44 0)
(-4.7992e-45 -7.07295e-44 0)
(-1.49576e-44 4.207e-44 0)
(-1.57105e-45 1.3782e-43 0)
(9.16184e-45 7.14362e-44 0)
(-3.31904e-45 1.14711e-44 0)
(-1.22126e-46 1.18422e-43 0)
(1.27006e-44 1.36204e-44 0)
(-7.2248e-45 -5.90018e-44 0)
(1.23639e-34 7.21279e-35 0)
(1.33809e-35 7.03349e-36 0)
(1.38321e-36 6.50554e-37 0)
(1.32633e-37 5.8759e-38 0)
(1.2231e-38 5.03102e-39 0)
(1.06476e-39 4.17374e-40 0)
(8.94023e-41 3.30643e-41 0)
(7.16228e-42 2.54118e-42 0)
(5.55029e-43 1.90718e-43 0)
(4.15349e-44 1.4221e-44 0)
(3.03532e-45 1.11075e-45 0)
(2.19707e-46 9.24904e-47 0)
(1.23892e-47 1.6506e-47 0)
(-2.15239e-47 5.43384e-47 0)
(-9.456e-47 3.33998e-46 0)
(-3.83123e-46 1.41454e-45 0)
(-3.14415e-47 5.88133e-45 0)
(1.0241e-45 1.88622e-45 0)
(6.38757e-46 -8.93485e-45 0)
(-5.51242e-46 -7.35362e-45 0)
(-7.23286e-46 -9.54555e-46 0)
(-2.91923e-46 3.09774e-45 0)
(3.7986e-46 3.24447e-45 0)
(3.97346e-46 -2.40305e-45 0)
(-3.5712e-46 -2.49115e-45 0)
(-4.11452e-46 2.77224e-45 0)
(1.04904e-46 3.46001e-45 0)
(2.58482e-46 1.23462e-45 0)
(9.5102e-47 -2.60062e-46 0)
(2.50697e-48 -1.17385e-46 0)
(6.7906e-47 -3.10244e-46 0)
(2.91593e-46 -1.12811e-45 0)
(-3.49397e-46 -4.66395e-45 0)
(-9.77914e-46 3.40778e-45 0)
(-6.89878e-47 9.4867e-45 0)
(6.05e-46 4.89838e-45 0)
(-2.13692e-46 8.19971e-46 0)
(-5.35522e-48 8.03875e-45 0)
(8.30792e-46 9.35028e-46 0)
(-4.72956e-46 -4.00126e-45 0)
(1.16979e-36 2.44943e-35 0)
(1.46773e-37 2.46262e-36 0)
(1.70074e-38 2.3296e-37 0)
(1.7786e-39 2.13195e-38 0)
(1.75607e-40 1.84752e-39 0)
(1.6156e-41 1.54612e-40 0)
(1.41819e-42 1.23558e-41 0)
(1.17917e-43 9.55421e-43 0)
(9.42879e-45 7.12233e-44 0)
(7.33937e-46 5.16978e-45 0)
(5.65252e-47 3.68359e-46 0)
(4.53054e-48 2.6102e-47 0)
(1.50365e-49 2.40956e-48 0)
(-1.42477e-48 3.69102e-48 0)
(-6.05888e-48 2.20745e-47 0)
(-2.43947e-47 9.31214e-47 0)
(-1.9411e-48 3.84609e-46 0)
(6.52505e-47 1.2288e-46 0)
(4.07039e-47 -5.8446e-46 0)
(-3.5103e-47 -4.81554e-46 0)
(-4.61305e-47 -6.28353e-47 0)
(-1.86799e-47 2.02862e-46 0)
(2.41841e-47 2.13393e-46 0)
(2.5355e-47 -1.56588e-46 0)
(-2.27234e-47 -1.62597e-46 0)
(-2.62207e-47 1.81347e-46 0)
(6.61871e-48 2.26746e-46 0)
(1.65313e-47 8.20718e-47 0)
(6.13688e-48 -1.78377e-47 0)
(1.11916e-49 -7.90983e-48 0)
(4.19595e-48 -2.02164e-47 0)
(1.79713e-47 -7.21824e-47 0)
(-2.4617e-47 -2.96212e-46 0)
(-6.2298e-47 2.58166e-46 0)
(-2.13686e-48 6.29158e-46 0)
(3.89847e-47 3.23712e-46 0)
(-1.34079e-47 5.67176e-47 0)
(-2.06451e-49 5.25945e-46 0)
(5.29425e-47 6.17552e-47 0)
(-3.01525e-47 -2.61812e-46 0)
(-1.05644e-34 6.20909e-35 0)
(-1.12822e-35 5.96597e-36 0)
(-1.15189e-36 5.45732e-37 0)
(-1.09436e-37 4.89253e-38 0)
(-1.00104e-38 4.16194e-39 0)
(-8.65931e-40 3.4355e-40 0)
(-7.23139e-41 2.70905e-41 0)
(-5.76824e-42 2.07166e-42 0)
(-4.45221e-43 1.52368e-43 0)
(-3.30489e-44 1.08836e-44 0)
(-2.37907e-45 7.51779e-46 0)
(-1.65502e-46 5.05499e-47 0)
(-1.12013e-47 3.33773e-48 0)
(-8.2397e-49 4.40017e-49 0)
(-4.22724e-49 1.43112e-48 0)
(-1.50724e-48 5.96779e-48 0)
(-1.1621e-49 2.45074e-47 0)
(4.02616e-48 7.80461e-48 0)
(2.51191e-48 -3.72505e-47 0)
(-2.16487e-48 -3.07205e-47 0)
(-2.8495e-48 -4.02631e-48 0)
(-1.1585e-48 1.29404e-47 0)
(1.49118e-48 1.36531e-47 0)
(1.56789e-48 -9.94924e-48 0)
(-1.40007e-48 -1.03443e-47 0)
(-1.61836e-48 1.1558e-47 0)
(4.03617e-49 1.44728e-47 0)
(1.0249e-48 5.29312e-48 0)
(3.84414e-49 -1.17303e-48 0)
(3.06271e-51 -5.14671e-49 0)
(2.50639e-49 -1.27936e-48 0)
(1.07141e-48 -4.48698e-48 0)
(-1.66247e-48 -1.8293e-47 0)
(-3.84343e-48 1.87957e-47 0)
(5.64298e-51 4.06704e-47 0)
(2.43158e-48 2.08342e-47 0)
(-8.14507e-49 3.77555e-48 0)
(-3.18464e-51 3.35258e-47 0)
(3.26819e-48 3.96915e-48 0)
(-1.86314e-48 -1.66843e-47 0)
(-5.78983e-34 -9.12238e-35 0)
(-5.99981e-35 -1.13932e-35 0)
(-6.03045e-36 -1.15497e-36 0)
(-5.62083e-37 -1.08128e-37 0)
(-5.07723e-38 -9.40445e-39 0)
(-4.33101e-39 -7.86204e-40 0)
(-3.57897e-40 -6.26161e-41 0)
(-2.82348e-41 -4.82537e-42 0)
(-2.15974e-42 -3.57417e-43 0)
(-1.58861e-43 -2.56802e-44 0)
(-1.13466e-44 -1.78281e-45 0)
(-7.83301e-46 -1.20299e-46 0)
(-5.25969e-47 -7.87084e-48 0)
(-3.43172e-48 -4.87408e-49 0)
(-2.40175e-49 5.70896e-50 0)
(-1.03913e-49 3.68335e-49 0)
(-7.59649e-51 1.51218e-48 0)
(2.42247e-49 4.80075e-49 0)
(1.51182e-49 -2.29911e-48 0)
(-1.30223e-49 -1.89783e-48 0)
(-1.71644e-49 -2.49715e-49 0)
(-7.00057e-50 7.9965e-49 0)
(8.96857e-50 8.46954e-49 0)
(9.45147e-50 -6.11989e-49 0)
(-8.4152e-50 -6.37281e-49 0)
(-9.74157e-50 7.1341e-49 0)
(2.40566e-50 8.94744e-49 0)
(6.19136e-50 3.31297e-49 0)
(2.34122e-50 -7.54553e-50 0)
(-1.60028e-53 -3.2578e-50 0)
(1.45658e-50 -7.83789e-50 0)
(6.21678e-50 -2.69905e-49 0)
(-1.08941e-49 -1.0929e-48 0)
(-2.31267e-49 1.30289e-48 0)
(8.92279e-51 2.54552e-48 0)
(1.48068e-49 1.2985e-48 0)
(-4.82594e-50 2.43836e-49 0)
(3.01658e-52 2.06964e-48 0)
(1.96744e-49 2.46743e-49 0)
(-1.12246e-49 -1.03044e-48 0)
(1.11166e-33 -1.48925e-34 0)
(1.17932e-34 -2.46173e-35 0)
(1.20487e-35 -2.64419e-36 0)
(1.14115e-36 -2.51086e-37 0)
(1.04337e-37 -2.18437e-38 0)
(9.0049e-39 -1.82121e-39 0)
(7.51132e-40 -1.44482e-40 0)
(5.97892e-41 -1.10951e-41 0)
(4.60756e-42 -8.18936e-43 0)
(3.41312e-43 -5.86621e-44 0)
(2.45262e-44 -4.06069e-45 0)
(1.70286e-45 -2.73308e-46 0)
(1.14917e-46 -1.78436e-47 0)
(7.52122e-48 -1.13386e-48 0)
(4.78058e-49 -6.48577e-50 0)
(2.44314e-50 1.81493e-50 0)
(1.41142e-51 9.07677e-50 0)
(1.42763e-50 2.87996e-50 0)
(8.84915e-51 -1.38395e-49 0)
(-7.61252e-51 -1.14332e-49 0)
(-1.00484e-50 -1.50947e-50 0)
(-4.11316e-51 4.81843e-50 0)
(5.24237e-51 5.11868e-50 0)
(5.53941e-51 -3.67329e-50 0)
(-4.91516e-51 -3.83011e-50 0)
(-5.69899e-51 4.29452e-50 0)
(1.39164e-51 5.39345e-50 0)
(3.63711e-51 2.01662e-50 0)
(1.38769e-51 -4.68535e-51 0)
(-1.47737e-53 -1.99931e-51 0)
(8.20945e-52 -4.67163e-51 0)
(3.50017e-51 -1.5794e-50 0)
(-6.88922e-51 -6.35487e-50 0)
(-1.35239e-50 8.72976e-50 0)
(1.02154e-51 1.55422e-49 0)
(8.76006e-51 7.89043e-50 0)
(-2.7781e-51 1.52379e-50 0)
(4.92785e-53 1.24602e-49 0)
(1.15124e-50 1.49462e-50 0)
(-6.57559e-51 -6.20517e-50 0)