/*--------------------------------*- C++ -*----------------------------------*\
| =========                 |                                                 |
| \\      /  F ield         | OpenFOAM: The Open Source CFD Toolbox           |
|  \\    /   O peration     | Version:  2.4.0                                 |
|   \\  /    A nd           | Web:      www.OpenFOAM.org                      |
|    \\/     M anipulation  |                                                 |
\*---------------------------------------------------------------------------*/
FoamFile
{
    version     2.0;
    format      ascii;
    class       surfaceScalarField;
    location    "0.8";
    object      phi;
}
// * * * * * * * * * * * * * * * * * * * * * * * * * * * * * * * * * * * * * //

dimensions      [0 3 -1 0 0 0 0];

internalField   nonuniform List<scalar> 
3781
(
4.04623e-39
1.02612e-40
2.09816e-38
5.57188e-40
3.02803e-38
3.54053e-39
5.78021e-37
2.59431e-39
8.55472e-41
-6.80588e-39
-5.77404e-37
-6.79251e-39
-2.56659e-38
2.70921e-39
4.16079e-39
4.20032e-39
4.78097e-38
4.66905e-39
6.12451e-37
6.35276e-39
6.03613e-37
-3.5268e-39
-5.22062e-37
-9.40015e-39
2.56772e-38
2.59427e-39
5.827e-37
6.13444e-39
3.08953e-38
-2.71104e-39
2.10751e-38
-3.556e-39
4.08459e-39
-5.58606e-40
5.3036e-40
-1.01592e-40
7.63457e-41
-1.35897e-41
9.22237e-42
-1.84011e-42
1.12311e-42
-2.16637e-43
1.23664e-43
-2.48851e-44
1.34616e-44
-2.62167e-45
2.69355e-45
-2.41634e-46
1.35792e-44
2.43988e-46
1.24872e-43
2.64492e-45
1.13508e-42
2.51265e-44
9.33243e-42
2.18988e-43
7.73425e-41
1.86232e-42
5.38432e-40
1.37809e-41
4.15146e-39
1.03211e-40
2.15269e-38
5.70306e-40
3.4431e-38
3.64357e-39
5.99537e-37
3.16436e-39
3.4431e-38
-3.16436e-39
2.15269e-38
-3.64357e-39
4.15146e-39
-5.70306e-40
5.38432e-40
-1.03211e-40
7.73423e-41
-1.37813e-41
9.33132e-42
-1.8652e-42
1.12875e-42
-2.40003e-43
9.87366e-44
-1.54972e-43
-8.27699e-44
-7.51286e-43
-3.00239e-42
1.40428e-39
-1.19026e-40
6.95761e-39
-8.824e-40
3.80695e-38
-5.26805e-39
6.00551e-38
-3.74609e-39
3.57999e-41
1.00634e-38
-5.98072e-38
1.0045e-38
-3.64322e-38
-3.91211e-39
1.45763e-39
-6.30158e-39
4.38563e-38
-7.05636e-39
9.95774e-38
-9.3298e-39
6.86485e-38
5.24935e-39
-1.33556e-38
1.38095e-38
8.62919e-39
-3.74605e-39
6.17192e-38
-9.01377e-39
3.83166e-38
3.91442e-39
6.9973e-39
5.28915e-39
1.42596e-39
8.86206e-40
2.11662e-40
1.47712e-40
3.17332e-41
1.86319e-41
4.07727e-42
2.31541e-42
5.11243e-43
2.55573e-43
5.8284e-44
2.75846e-44
6.48211e-45
2.76759e-45
1.32604e-45
2.45119e-46
6.54083e-45
-2.47344e-46
5.88776e-44
-2.79034e-45
5.16987e-43
-2.78295e-44
4.129e-42
-2.58068e-43
3.21848e-41
-2.34017e-42
2.15215e-40
-1.88593e-41
1.4535e-39
-1.49767e-40
7.1762e-39
-9.02467e-40
3.95228e-38
-5.41772e-39
6.72267e-38
-4.64826e-39
3.95228e-38
4.64826e-39
7.1762e-39
5.41772e-39
1.4535e-39
9.02467e-40
2.15215e-40
1.49766e-40
3.21832e-41
1.88568e-41
4.11863e-42
2.3206e-42
4.57541e-43
1.13656e-43
-1.88881e-43
-8.77078e-43
-9.15958e-43
-5.29813e-42
-2.1673e-41
3.55947e-40
-4.61956e-41
1.40294e-39
-3.19421e-40
5.92154e-39
-1.57703e-39
8.81615e-39
-1.03122e-39
1.14521e-41
2.99259e-39
-8.74369e-39
2.98492e-39
-5.50069e-39
-1.09615e-39
3.70082e-40
-1.95489e-39
7.03875e-39
-2.22521e-39
1.51061e-38
-2.73121e-39
1.06388e-38
1.56907e-39
-1.06033e-39
4.02377e-39
1.83408e-39
-1.03117e-39
9.2453e-39
-2.60793e-39
5.99366e-39
1.09716e-39
1.41517e-39
1.58579e-39
3.60035e-40
3.2085e-40
6.08572e-41
5.73119e-41
1.0071e-41
7.80345e-42
1.3841e-42
1.01305e-42
1.8271e-43
1.16896e-43
2.16502e-44
1.30067e-44
2.48342e-45
1.34382e-45
5.20333e-46
1.21424e-46
2.50686e-45
-1.22571e-46
2.18825e-44
-1.35533e-45
1.84902e-43
-1.3128e-44
1.40324e-42
-1.18105e-43
1.02316e-41
-1.02469e-42
6.20537e-41
-7.90707e-42
3.68679e-40
-5.82053e-41
1.46559e-39
-3.27614e-40
6.29006e-39
-1.63506e-39
1.02802e-38
-1.35867e-39
6.29006e-39
1.35867e-39
1.46559e-39
1.63506e-39
3.68678e-40
3.27614e-40
6.2052e-41
5.82035e-41
1.02195e-41
7.89131e-42
1.32741e-42
8.9983e-43
-2.55077e-43
-8.15186e-43
-1.83712e-42
-5.92617e-42
-7.0224e-42
-3.54451e-41
-1.48184e-40
6.56805e-41
-1.69272e-41
2.08681e-40
-9.17759e-41
7.04637e-40
-4.1617e-40
9.95653e-40
-2.62406e-40
2.58292e-42
7.87763e-40
-9.8044e-40
7.85343e-40
-6.25811e-40
-2.82039e-40
6.84715e-41
-5.23559e-40
8.62579e-40
-5.99291e-40
1.76831e-39
-7.14959e-40
1.28273e-39
4.12727e-40
-1.32663e-42
1.04999e-39
2.89658e-40
-2.62178e-40
1.07627e-39
-6.77366e-40
7.19724e-40
2.82377e-40
2.11325e-40
4.18108e-40
6.62242e-41
9.0977e-41
1.25832e-41
1.74031e-41
2.25343e-42
2.50259e-42
3.27681e-43
3.40273e-43
4.50095e-44
4.07481e-44
5.50522e-45
4.67226e-45
6.46947e-46
4.9465e-46
1.38256e-46
4.55128e-47
6.53265e-46
-4.59565e-47
5.56683e-45
-4.99038e-46
4.55791e-44
-4.71773e-45
3.32532e-43
-4.11919e-44
2.2928e-42
-3.44441e-43
1.28646e-41
-2.53857e-42
6.81389e-41
-1.77016e-41
2.21564e-40
-9.31299e-41
7.72707e-40
-4.32926e-40
1.21683e-39
-3.55267e-40
7.72707e-40
3.55267e-40
2.21564e-40
4.32926e-40
6.81375e-41
9.31288e-41
1.28535e-41
1.76912e-41
2.21078e-42
2.44683e-42
-1.90616e-43
-3.916e-43
-3.03487e-42
-5.5475e-42
-1.32314e-41
-3.62458e-41
-5.08779e-41
-2.21328e-40
-9.51902e-40
1.07825e-41
-2.42871e-41
2.702e-41
-2.84762e-41
6.4071e-41
-8.90963e-41
8.24175e-41
-5.19429e-41
5.38964e-43
1.56508e-40
-7.94637e-41
1.56204e-40
-5.04805e-41
-5.4923e-41
1.15453e-41
-1.05911e-40
8.25019e-41
-1.21851e-40
1.57711e-40
-1.41572e-40
1.22435e-40
8.21021e-41
2.22054e-41
2.07276e-40
4.06165e-41
-5.04417e-41
9.61332e-41
-1.33121e-40
6.67665e-41
5.49974e-41
2.72804e-41
8.33676e-41
1.10954e-41
1.93356e-41
2.34142e-42
3.89775e-42
4.51199e-43
5.87015e-43
6.87918e-44
8.27588e-44
9.78878e-45
1.02191e-44
1.22975e-45
1.1999e-45
1.47619e-46
1.29616e-46
3.20792e-47
1.21004e-47
1.49103e-46
-1.22215e-47
1.24402e-45
-1.30799e-46
9.91843e-45
-1.21199e-45
6.98722e-44
-1.03352e-44
4.59726e-43
-8.38263e-44
2.40013e-42
-5.96007e-43
1.14753e-41
-3.97002e-42
2.9151e-41
-1.98375e-41
7.53821e-41
-8.66578e-41
1.1141e-40
-7.0269e-41
7.5382e-41
7.02689e-41
2.915e-41
8.66573e-41
1.14665e-41
1.98316e-41
2.33007e-42
3.91501e-42
-6.67036e-44
1.04102e-43
-3.33902e-42
-3.92403e-42
-2.04325e-41
-3.10305e-41
-8.97074e-41
-2.06354e-40
-3.52208e-40
-1.29853e-39
-5.79797e-39
-2.57768e-43
-1.36822e-40
5.11845e-42
-6.24433e-41
5.16486e-42
-5.61416e-41
4.47645e-42
-1.8481e-41
2.26671e-43
2.67504e-41
-3.3935e-42
2.8321e-41
-1.97467e-42
-9.98868e-42
1.7772e-42
-1.96263e-41
6.00682e-42
-2.26382e-41
9.73235e-42
-2.58861e-41
9.11942e-42
1.50303e-41
5.46792e-42
3.78049e-41
5.30549e-42
-9.04279e-42
6.05551e-42
-2.41925e-41
4.54631e-42
9.95824e-42
3.23687e-42
1.52932e-41
1.69723e-42
3.69233e-42
3.90017e-43
7.78682e-43
7.95328e-44
1.21666e-43
1.25958e-44
1.76991e-44
1.8436e-45
2.24163e-45
2.36826e-46
2.68638e-46
2.8936e-47
2.95104e-47
6.3789e-48
2.7893e-48
2.92341e-47
-2.81784e-48
2.39659e-46
-2.97864e-47
1.86896e-45
-2.71425e-46
1.28033e-44
-2.26802e-45
8.11332e-44
-1.79376e-44
4.00712e-43
-1.23633e-43
1.76369e-42
-7.9408e-43
3.54365e-42
-3.79576e-42
5.82818e-42
-1.59457e-41
7.43493e-42
-1.28363e-41
5.82757e-42
1.28361e-41
3.53795e-42
1.5943e-41
1.71316e-42
3.76865e-42
-8.47676e-45
5.37013e-43
-3.04093e-42
-2.20937e-42
-2.05742e-41
-1.93444e-41
-1.26161e-40
-1.53648e-40
-5.68163e-40
-1.05467e-39
-2.2854e-39
-6.89947e-39
-3.24042e-38
-9.83025e-42
-8.16002e-40
1.54312e-41
-3.51701e-40
7.85431e-42
-2.51699e-40
3.66775e-42
-5.75748e-41
9.18169e-43
-6.9303e-42
5.14137e-43
2.88513e-42
2.94284e-43
-1.88169e-42
2.69038e-43
-3.28808e-42
2.45205e-43
-3.76794e-42
6.17157e-44
-4.2442e-42
4.2929e-43
2.46649e-42
9.91939e-43
6.18346e-42
6.93533e-43
-1.45575e-42
7.40273e-44
-3.944e-42
1.25317e-43
1.61815e-42
3.83782e-43
2.5145e-42
2.51456e-43
6.28449e-43
6.14744e-44
1.37448e-43
1.3085e-44
2.21474e-44
2.13366e-45
3.30553e-45
3.19452e-46
4.27689e-46
4.17823e-47
5.21373e-47
5.18062e-48
5.81043e-48
1.15572e-48
5.55037e-49
5.2351e-48
-5.60828e-49
4.22949e-47
-5.86592e-48
3.23983e-46
-5.26918e-47
2.1702e-45
-4.32876e-46
1.33615e-44
-3.35173e-45
6.32783e-44
-2.25217e-44
2.62323e-43
-1.40314e-43
4.31526e-43
-6.47187e-43
3.10975e-43
-2.62894e-42
1.79681e-43
-2.1026e-42
3.07833e-43
2.10149e-42
4.01623e-43
2.61811e-42
-6.279e-45
5.3633e-43
-2.14462e-42
-9.25965e-43
-1.71538e-41
-9.83841e-42
-1.15771e-40
-8.38021e-41
-7.29334e-40
-6.87476e-40
-3.39244e-39
-4.93223e-39
-1.40997e-38
-3.41361e-38
-1.71945e-37
-2.48135e-41
-4.64829e-39
1.20284e-40
-1.92193e-39
5.44308e-41
-1.37117e-39
2.52958e-41
-3.00769e-40
5.66515e-42
-5.96779e-41
1.26039e-42
-8.44636e-42
2.63558e-43
-1.56154e-42
6.43962e-44
-6.72721e-43
-1.31668e-44
-6.08604e-43
-9.87498e-44
-6.59498e-43
-1.12496e-44
3.81912e-43
1.5347e-43
9.55955e-43
9.06048e-44
-2.22302e-43
-5.33188e-44
-6.08083e-43
-2.54009e-44
2.4905e-43
4.63862e-44
3.90212e-43
3.56209e-44
1.0007e-43
9.09694e-45
2.25457e-44
1.99765e-45
3.72321e-45
3.33291e-46
5.67523e-46
5.08113e-47
7.47223e-47
6.746e-48
9.23959e-48
8.46794e-49
1.04212e-48
1.90839e-49
1.00437e-49
8.55857e-49
-1.01502e-49
6.83055e-48
-1.05224e-48
5.15507e-47
-9.33993e-48
3.39178e-46
-7.56517e-47
2.04152e-45
-5.75698e-46
9.37765e-45
-3.78848e-45
3.72706e-44
-2.30366e-44
5.33712e-44
-1.03209e-43
3.17997e-46
-4.08908e-43
-4.80001e-44
-3.25714e-43
-1.3981e-44
3.2227e-43
-8.42998e-44
3.74893e-43
-1.21729e-42
-2.49251e-43
-1.04835e-41
-3.42196e-42
-8.33804e-41
-3.2567e-41
-5.7758e-40
-2.85545e-40
-3.75734e-39
-2.45188e-39
-1.81776e-38
-1.88098e-38
-7.83524e-38
-1.41126e-37
-7.88984e-37
2.92389e-40
-2.38988e-38
9.86649e-40
-9.87487e-39
3.80187e-40
-7.19369e-39
1.5863e-40
-1.51105e-39
3.36905e-41
-2.91909e-40
6.62423e-42
-4.26905e-41
1.03358e-42
-5.98762e-42
1.52178e-43
-8.01394e-43
1.27683e-44
-1.71131e-43
-1.88546e-44
-1.04509e-43
-6.31414e-45
5.45131e-44
2.18811e-44
1.38372e-43
1.18692e-44
-3.185e-44
-1.16997e-44
-8.78634e-44
-6.49654e-45
3.59257e-44
5.77048e-45
5.67112e-44
4.88503e-45
1.48693e-44
1.28501e-45
3.43052e-45
2.88734e-46
5.78119e-46
4.90382e-47
8.96433e-47
7.58547e-48
1.19759e-47
1.0195e-48
1.4985e-48
1.29288e-49
1.70741e-49
2.93862e-50
1.65801e-50
1.30692e-49
-1.67584e-50
1.0325e-48
-1.72426e-49
7.69806e-48
-1.51507e-48
4.99245e-47
-1.21282e-47
2.95244e-46
-9.09694e-47
1.32587e-45
-5.88588e-46
5.11859e-45
-3.50823e-45
6.70404e-45
-1.53596e-44
-3.5274e-45
-5.9599e-44
-1.7084e-44
-4.78847e-44
-6.14561e-44
3.92005e-44
-5.5901e-43
-2.73444e-44
-5.24429e-42
-9.00811e-43
-4.48474e-41
-9.13936e-42
-3.66321e-40
-8.92825e-41
-2.62128e-39
-8.20373e-40
-1.77788e-38
-7.60073e-39
-9.02089e-38
-6.48418e-38
-4.12091e-37
-5.53511e-37
-3.57759e-36
5.87052e-39
-1.18654e-37
8.11226e-39
-4.26509e-38
2.55259e-39
-3.00501e-38
9.02223e-40
-6.02648e-39
1.79118e-40
-1.11071e-39
3.34941e-41
-1.56913e-40
5.00892e-42
-2.11703e-41
7.05857e-43
-2.53618e-42
8.69101e-44
-3.02658e-43
7.17392e-45
-4.54075e-44
-2.85029e-47
5.45209e-45
3.0268e-45
2.10831e-44
1.53352e-45
-4.90215e-45
-1.79265e-45
-1.35455e-44
-1.03435e-45
5.53081e-45
7.18354e-46
8.78135e-45
6.41487e-46
2.34174e-45
1.72414e-46
5.50124e-46
3.94223e-47
9.41585e-47
6.79372e-48
1.4794e-47
1.06356e-48
1.99891e-48
1.44443e-49
2.52443e-49
1.84783e-50
2.89947e-50
4.23101e-51
2.83234e-51
1.86793e-50
-2.86315e-51
1.46282e-49
-2.92845e-50
1.0792e-48
-2.55277e-49
6.91335e-48
-2.02479e-48
4.02582e-47
-1.50178e-47
1.77114e-46
-9.59123e-47
6.61728e-46
-5.63042e-46
7.07513e-46
-2.42293e-45
-2.18264e-45
-9.26223e-45
-1.91254e-44
-7.63938e-45
-1.8109e-43
3.25295e-45
-1.77405e-42
-3.59791e-44
-1.67945e-41
-4.96606e-43
-1.46972e-40
-5.38342e-42
-1.23691e-39
-6.08667e-41
-9.18672e-39
-7.15644e-40
-6.51559e-38
-9.20279e-39
-3.49604e-37
-1.145e-37
-1.69362e-36
-1.30917e-36
-1.13059e-35
1.14376e-37
-7.36849e-37
1.08219e-37
-2.82413e-37
2.87076e-38
-2.0635e-37
8.59083e-39
-3.64244e-38
1.56093e-39
-6.36119e-39
2.75314e-40
-8.50214e-40
3.94389e-41
-1.11026e-40
5.39128e-42
-1.28412e-41
6.55741e-43
-1.44152e-42
7.56647e-44
-1.50915e-43
7.99655e-45
-1.43422e-44
1.23418e-45
3.03024e-46
2.84013e-46
-5.21767e-46
-2.5132e-46
-1.1048e-45
-1.51144e-46
4.45599e-46
9.39807e-47
7.12099e-46
8.6511e-47
1.93218e-46
2.36015e-47
4.64848e-47
5.46343e-48
8.10923e-48
9.51514e-49
1.29765e-48
1.50249e-49
1.78053e-49
2.05596e-50
2.27976e-50
2.64643e-51
2.64965e-51
6.08505e-52
2.61284e-52
2.66635e-51
-2.64019e-52
2.06932e-50
-2.67439e-51
1.50666e-49
-2.30264e-50
9.43936e-49
-1.79951e-49
5.25856e-48
-1.31143e-48
2.01593e-47
-8.17937e-48
3.88029e-47
-4.64987e-47
-5.06621e-46
-1.86132e-46
-7.18772e-45
-5.81141e-46
-7.81293e-44
1.39265e-45
-8.26433e-43
2.30567e-44
-8.29228e-42
2.42498e-43
-8.05556e-41
2.47217e-42
-7.25452e-40
2.27413e-41
-6.35347e-39
1.74785e-40
-4.92455e-38
5.92398e-40
-3.73624e-37
-1.25638e-38
-2.14633e-36
-3.86456e-37
-1.21047e-35
-6.29907e-36
-7.43175e-35
1.74236e-36
-1.01211e-36
1.32775e-36
-8.69398e-37
2.67261e-37
-2.34837e-37
6.00485e-38
-3.47033e-38
9.52818e-39
-5.52949e-39
1.51342e-39
-7.12135e-40
2.03332e-40
-9.155e-41
2.6474e-41
-1.05025e-41
3.11264e-42
-1.17386e-42
3.51757e-43
-1.21744e-43
3.70015e-44
-1.21359e-44
3.77236e-45
-1.00988e-45
3.73282e-46
-1.38469e-46
1.33711e-47
-1.011e-46
-8.70003e-48
3.66781e-47
7.14547e-48
5.99571e-47
6.46832e-48
1.64652e-47
1.78579e-48
3.99758e-48
4.19292e-49
7.03503e-49
7.39359e-50
1.1329e-49
1.18097e-50
1.56354e-50
1.63224e-51
2.01024e-51
2.12026e-52
2.34501e-52
4.9502e-53
2.31848e-53
2.19206e-52
-2.33203e-53
1.72209e-51
-2.35181e-52
1.2932e-50
-2.00836e-51
8.78851e-50
-1.54882e-50
5.91969e-49
-1.10143e-49
3.88675e-48
-6.51069e-49
3.15843e-47
-3.23394e-48
2.98236e-46
-6.19436e-48
3.26821e-45
6.95235e-47
3.53587e-44
1.51234e-45
3.67978e-43
1.7799e-44
3.62345e-42
1.91864e-43
3.4279e-41
1.97483e-42
3.01501e-40
1.84246e-41
2.54376e-39
1.47114e-40
1.91392e-38
6.33658e-40
1.37068e-37
-7.1433e-39
7.61021e-37
-2.65869e-37
3.83119e-36
-4.53777e-36
-5.57014e-35
3.61648e-35
-1.81449e-35
2.22987e-36
-1.10962e-36
1.71311e-36
5.33234e-38
3.63018e-37
2.21074e-38
5.23719e-38
4.89796e-39
8.02855e-39
6.94316e-40
1.03266e-39
9.25417e-41
1.31332e-40
1.07294e-41
1.50599e-41
1.20171e-42
1.67423e-42
1.24461e-43
1.73294e-43
1.24648e-44
1.7314e-44
1.19007e-45
1.63883e-45
1.05326e-46
1.48073e-46
2.40313e-48
1.21772e-47
3.65889e-48
1.62554e-48
4.6682e-48
5.80909e-49
1.28322e-48
1.44187e-49
3.14497e-49
3.29912e-50
5.59031e-50
5.8034e-51
9.08608e-51
9.28661e-52
1.26443e-51
1.28816e-52
1.63729e-52
1.69048e-53
1.92196e-53
5.68534e-54
1.90002e-54
4.29631e-53
-2.06564e-54
4.99853e-52
-2.14453e-53
6.05244e-51
-1.9523e-52
7.45344e-50
-1.70205e-51
9.29032e-49
-1.50486e-50
1.14495e-47
-1.35133e-49
1.38857e-46
-1.34176e-48
1.63062e-45
-1.41938e-47
1.85695e-44
-1.62293e-46
2.02418e-43
-1.85612e-45
2.12917e-42
-2.10444e-44
2.12107e-41
-2.27083e-43
2.03762e-40
-2.32483e-42
1.82041e-39
-2.12647e-41
1.57129e-38
-1.58507e-40
1.20924e-37
-3.76897e-40
9.00584e-37
1.59416e-38
5.192e-36
4.40957e-37
2.86424e-35
7.09628e-36
8.41256e-35
1.89202e-36
-7.58576e-37
1.13912e-36
-5.57513e-37
2.34124e-37
1.23385e-37
5.37155e-38
3.01436e-38
8.68733e-39
5.96316e-39
1.4011e-39
8.27691e-40
1.90387e-40
1.0972e-40
2.50084e-41
1.27536e-41
2.96044e-42
1.43322e-42
3.3643e-43
1.49051e-43
3.55563e-44
1.49724e-44
3.60898e-45
1.42206e-45
3.46579e-46
1.30132e-46
3.19216e-47
1.08838e-47
2.76567e-48
1.18653e-48
2.78703e-49
4.31453e-49
5.51525e-50
1.04946e-49
1.15303e-50
2.4889e-50
2.49656e-51
4.40593e-51
4.34119e-52
7.16523e-52
6.93746e-53
1.00002e-52
9.64866e-54
1.2983e-53
1.2719e-54
1.52775e-54
4.47278e-55
1.44198e-55
3.47714e-54
-2.74489e-55
4.06419e-53
-3.35024e-54
4.91121e-52
-3.94928e-53
6.00508e-51
-4.75751e-52
7.38622e-50
-5.90533e-51
8.95727e-49
-7.39912e-50
1.06414e-47
-9.31945e-49
1.2229e-46
-1.15433e-47
1.35581e-45
-1.40281e-46
1.43848e-44
-1.64591e-45
1.46038e-43
-1.86827e-44
1.40509e-42
-2.01167e-43
1.28375e-41
-2.04597e-42
1.09429e-40
-1.8345e-41
8.73386e-40
-1.26738e-40
6.28524e-39
-2.00791e-41
4.05296e-38
2.02703e-38
2.11766e-37
4.90661e-37
7.84625e-37
7.59143e-36
8.71299e-35
2.06416e-37
-5.82679e-37
-6.31582e-39
-9.10717e-38
7.92496e-39
1.41771e-38
4.56563e-39
4.67447e-39
1.01905e-39
1.01174e-39
2.02406e-40
1.50734e-40
3.09767e-41
2.08279e-41
4.42946e-42
2.5137e-42
5.5566e-43
2.90018e-43
6.59945e-44
3.0892e-44
7.2098e-45
3.1604e-45
7.51271e-46
3.05086e-46
7.36561e-47
2.83346e-47
6.91709e-48
2.47611e-48
6.15812e-49
2.31079e-49
5.61775e-50
4.31435e-50
6.94896e-51
8.5902e-51
1.06782e-51
1.89743e-51
1.9829e-52
3.30662e-52
3.27746e-53
5.3594e-53
5.13307e-54
7.49317e-54
7.06317e-55
9.75512e-55
4.60737e-56
1.15762e-55
-6.77275e-55
2.04389e-56
-1.01582e-53
1.25874e-55
-1.45671e-52
1.94424e-54
-2.03061e-51
2.9134e-53
-2.74523e-50
4.20839e-52
-3.60527e-49
5.87883e-51
-4.5789e-48
7.93927e-50
-5.64097e-47
1.0392e-48
-6.69016e-46
1.31343e-47
-7.68396e-45
1.60876e-46
-8.43786e-44
1.89496e-45
-8.96411e-43
2.16181e-44
-9.00588e-42
2.35777e-43
-8.76202e-41
2.49862e-42
-7.9031e-40
2.52697e-41
-6.93652e-39
2.54316e-40
-5.38765e-38
2.49825e-39
-4.10005e-37
2.58321e-38
-2.36115e-36
2.60068e-37
-1.33741e-35
2.58386e-36
2.00271e-35
1.78755e-38
-1.09324e-37
-8.94208e-39
-1.77358e-38
-9.74807e-40
8.1708e-40
2.15635e-40
5.52396e-40
8.5323e-41
1.45298e-40
2.11097e-41
2.38637e-41
3.5961e-42
3.55105e-42
5.499e-43
4.51724e-43
7.22684e-44
5.4316e-44
8.87548e-45
5.97053e-45
9.95533e-46
6.26333e-46
1.05877e-46
6.1675e-47
1.05585e-47
5.82466e-48
1.00602e-48
5.21e-49
9.09441e-50
4.64699e-50
8.13287e-51
5.57193e-51
8.35738e-52
8.15243e-52
1.02414e-52
1.51769e-52
1.59237e-53
2.50133e-53
2.43783e-54
3.96304e-54
3.68891e-55
5.50087e-55
5.14546e-56
7.14926e-56
2.41723e-56
9.53353e-57
2.64949e-55
1.81451e-56
3.84023e-54
2.65048e-55
5.43203e-53
3.97665e-54
7.47705e-52
5.8185e-53
9.98419e-51
8.28215e-52
1.29408e-49
1.14758e-50
1.62077e-48
1.54285e-49
1.96498e-47
2.01564e-48
2.28999e-46
2.54592e-47
2.57567e-45
3.11902e-46
2.76379e-44
3.67618e-45
2.85342e-43
4.19715e-44
2.77739e-42
4.58154e-43
2.59385e-41
4.85682e-42
2.2359e-40
4.90682e-41
1.84454e-39
4.91446e-40
1.3391e-38
4.76903e-39
9.21874e-38
4.82894e-38
4.78768e-37
4.72133e-37
2.22567e-36
4.57823e-36
3.46053e-35
2.03216e-39
-1.29105e-38
-1.95542e-39
-2.37216e-39
-3.18421e-40
-3.95557e-41
-1.64775e-41
4.55771e-41
4.54048e-42
1.52259e-41
1.8778e-42
2.75973e-42
3.75358e-43
4.38104e-43
6.28696e-44
5.83728e-44
8.74414e-45
7.26315e-45
1.11857e-45
8.20303e-46
1.293e-46
8.78857e-47
1.40776e-47
8.80684e-48
1.43023e-48
8.43726e-49
1.38382e-49
7.66013e-50
1.26851e-50
6.79345e-51
1.13081e-51
6.85657e-52
1.05732e-52
8.0609e-53
1.09344e-53
1.23673e-53
1.38979e-54
1.87337e-54
1.88671e-55
2.85339e-55
2.7233e-56
3.90201e-56
1.17485e-56
5.04495e-57
1.26674e-55
7.65199e-58
1.89213e-54
2.77209e-57
2.76602e-53
4.17841e-56
3.93534e-52
6.29026e-55
5.45066e-51
9.23919e-54
7.32711e-50
1.32081e-52
9.56919e-49
1.83926e-51
1.20859e-47
2.48623e-50
1.47975e-46
3.26866e-49
1.7436e-45
4.15826e-48
1.9873e-44
5.14348e-47
2.16459e-43
6.15202e-46
2.27672e-42
7.23838e-45
2.26336e-41
8.47453e-44
2.17241e-40
1.05927e-42
1.93214e-39
1.49882e-41
1.66339e-38
2.52259e-40
1.26746e-37
4.60456e-39
9.36553e-37
8.26194e-38
5.2522e-36
1.31706e-36
2.81598e-35
1.75798e-35
1.81861e-34
2.08082e-40
-1.74578e-39
-2.3841e-40
-3.32463e-40
-4.43724e-41
-2.59603e-41
-4.66481e-42
1.90859e-42
1.49854e-44
1.34134e-42
1.34994e-43
2.84063e-43
3.30481e-44
4.92979e-44
6.07709e-45
6.94308e-45
8.92472e-46
8.99592e-46
1.18498e-46
1.04684e-46
1.40795e-47
1.14805e-47
1.56552e-48
1.1719e-48
1.61767e-49
1.13973e-49
1.5869e-50
1.04885e-50
1.47235e-51
9.33164e-52
1.31785e-52
8.66295e-53
1.18708e-53
8.73919e-54
1.12275e-54
1.09288e-54
1.22991e-55
1.46102e-55
1.483e-56
2.07206e-56
2.72404e-57
2.73771e-57
1.27955e-56
2.48909e-58
1.93113e-55
-1.5592e-57
2.8973e-54
-2.51548e-56
4.24043e-53
-3.86468e-55
6.04046e-52
-5.7898e-54
8.37771e-51
-8.45986e-53
1.12781e-49
-1.20289e-51
1.4753e-48
-1.66523e-50
1.86652e-47
-2.23694e-49
2.28985e-46
-2.91991e-48
2.70384e-45
-3.68436e-47
3.08952e-44
-4.50677e-46
3.37409e-43
-5.29578e-45
3.56061e-42
-6.00035e-44
3.55195e-41
-6.41151e-43
3.42487e-40
-6.39039e-42
3.06032e-39
-5.34549e-41
2.65284e-38
-2.68133e-40
2.03499e-37
3.09028e-39
1.52173e-36
1.26969e-37
8.62575e-36
2.61e-36
4.75435e-35
3.84983e-35
4.29519e-34
2.38115e-41
-1.90288e-40
-2.812e-41
-3.84791e-41
-5.58885e-42
-4.49466e-42
-7.90503e-43
-1.20976e-43
-5.10477e-44
9.26223e-44
6.02101e-45
2.45904e-44
2.48003e-45
4.71424e-45
5.30908e-46
7.02541e-46
8.39347e-47
9.46179e-47
1.16785e-47
1.13272e-47
1.43305e-48
1.2694e-48
1.63214e-49
1.31842e-49
1.71806e-50
1.30025e-50
1.71047e-51
1.21121e-51
1.60661e-52
1.08489e-52
1.44803e-53
9.7462e-54
1.28312e-54
9.08253e-55
1.15281e-55
9.80265e-56
1.13164e-56
1.1577e-56
1.21033e-57
1.50313e-57
1.65481e-58
1.83881e-58
3.78163e-58
-7.97106e-59
5.56113e-57
-1.6591e-57
8.34655e-56
-2.61316e-56
1.22236e-54
-4.01411e-55
1.74243e-53
-6.01369e-54
2.41846e-52
-8.78702e-53
3.25836e-51
-1.24941e-51
4.26619e-50
-1.72962e-50
5.40277e-49
-2.32343e-49
6.63555e-48
-3.03278e-48
7.8446e-47
-3.82674e-47
8.97621e-46
-4.68093e-46
9.81766e-45
-5.50053e-45
1.03794e-43
-6.23296e-44
1.0374e-42
-6.66247e-43
1.00278e-41
-6.64834e-42
8.98314e-41
-5.58469e-41
7.81511e-40
-2.87001e-40
6.01585e-39
3.0154e-39
4.52494e-38
1.28036e-37
2.57817e-37
2.64677e-36
1.43881e-36
3.91145e-35
4.3699e-34
2.40732e-42
-2.1339e-41
-2.81448e-42
-4.43564e-42
-5.91218e-43
-6.68838e-43
-9.71367e-44
-5.02197e-44
-9.00393e-45
3.44071e-45
-1.07826e-46
1.78914e-45
1.48997e-46
4.0554e-46
4.05837e-47
6.52662e-47
7.02449e-48
9.22573e-48
1.0291e-48
1.14137e-48
1.3061e-49
1.31069e-49
1.52404e-50
1.38706e-50
1.63413e-51
1.38841e-51
1.65064e-52
1.30934e-52
1.56897e-53
1.1826e-53
1.42564e-54
1.04786e-54
1.25747e-55
9.34272e-56
1.10172e-56
9.08002e-57
1.00876e-57
9.58702e-58
4.96102e-59
1.12868e-58
-7.83032e-58
1.37643e-59
-1.24965e-56
5.47201e-60
-1.92262e-55
6.275e-59
-2.88501e-54
9.96008e-58
-4.22248e-53
1.55044e-56
-6.01493e-52
2.35567e-55
-8.34234e-51
3.49514e-54
-1.12305e-49
5.05074e-53
-1.46908e-48
7.11771e-52
-1.85866e-47
9.74381e-51
-2.28021e-46
1.29939e-49
-2.69245e-45
1.67898e-48
-3.0765e-44
2.11799e-47
-3.35985e-43
2.60291e-46
-3.54558e-42
3.21522e-45
-3.53692e-41
4.13749e-44
-3.41036e-40
6.12201e-43
-3.04732e-39
1.07722e-41
-2.6416e-38
2.16925e-40
-2.02635e-37
4.40333e-39
-1.5154e-36
8.29337e-38
-8.59038e-36
1.35317e-36
-4.73692e-35
1.82439e-35
1.90086e-34
2.44177e-43
-2.16891e-42
-2.77673e-43
-4.67689e-43
-6.05135e-44
-8.22029e-44
-1.11105e-44
-8.24323e-45
-1.23846e-45
-2.43528e-46
-7.90819e-47
9.86332e-47
4.53175e-48
3.06138e-47
2.62969e-48
5.47346e-48
5.31263e-49
8.20166e-49
8.37563e-50
1.05317e-49
1.10983e-50
1.2419e-50
1.33343e-51
1.34082e-51
1.46033e-52
1.36322e-52
1.49904e-53
1.30206e-53
1.44316e-54
1.1871e-54
1.32358e-55
1.04809e-55
1.16858e-56
9.0804e-57
1.01155e-57
8.31443e-58
8.68259e-59
1.3994e-58
-2.67003e-59
2.6268e-59
-5.5627e-58
9.13056e-60
-8.76305e-57
5.75986e-59
-1.34674e-55
9.11391e-58
-2.01869e-54
1.43334e-56
-2.95106e-53
2.20254e-55
-4.1985e-52
3.30099e-54
-5.81493e-51
4.82544e-53
-7.81638e-50
6.86455e-52
-1.02075e-48
9.50824e-51
-1.2891e-47
1.27805e-49
-1.57817e-46
1.6695e-48
-1.85932e-45
2.10856e-47
-2.11889e-44
2.58312e-46
-2.30749e-43
3.04456e-45
-2.42649e-42
3.47635e-44
-2.41159e-41
3.79617e-43
-2.31394e-40
4.02887e-42
-2.05718e-39
4.08326e-41
-1.77022e-38
4.12043e-40
-1.34807e-37
4.06272e-39
-9.95605e-37
4.21728e-38
-5.57957e-36
4.26122e-37
-2.99152e-35
4.24324e-36
-2.52158e-35
3.29198e-35
1.8037e-34
1.63102e-44
-8.49136e-43
-1.82827e-44
-1.87243e-43
-4.0805e-45
-3.69398e-44
-7.86572e-46
-4.34914e-45
-9.38769e-47
-3.26436e-46
-7.53112e-48
3.52839e-48
-3.6942e-50
7.10245e-48
1.29503e-49
1.55537e-48
3.00637e-50
2.54861e-49
5.00313e-51
3.44085e-50
6.82655e-52
4.19497e-51
8.35857e-53
4.63761e-52
9.27755e-54
4.80001e-53
9.61912e-55
4.64839e-54
9.3339e-56
4.26694e-55
8.61603e-57
3.68719e-56
7.738e-58
2.0136e-57
7.53753e-59
2.43171e-58
2.92265e-60
1.08143e-57
-1.23526e-59
3.12103e-58
-1.33383e-58
8.59437e-59
-2.07216e-57
4.69279e-59
-3.17434e-56
5.05016e-58
-4.74239e-55
7.89121e-57
-6.90703e-54
1.21072e-55
-9.78686e-53
1.8116e-54
-1.34926e-51
2.6435e-53
-1.80454e-50
3.75336e-52
-2.34295e-49
5.18771e-51
-2.94012e-48
6.95698e-50
-3.57266e-47
9.06386e-49
-4.17466e-46
1.1415e-47
-4.71061e-45
1.39372e-46
-5.07407e-44
1.63654e-45
-5.2634e-43
1.85948e-44
-5.1526e-42
2.01728e-43
-4.84669e-41
2.11667e-42
-4.21546e-40
2.09955e-41
-3.51648e-39
2.02522e-40
-2.58941e-38
1.82442e-39
-1.81157e-37
1.62883e-38
-9.60462e-37
1.31727e-37
-4.53969e-36
1.0553e-36
-3.73813e-36
6.38406e-36
3.28774e-35
-6.82283e-44
-6.61538e-42
7.55752e-44
-1.43068e-42
1.71101e-44
-2.55718e-43
3.41748e-45
-2.64353e-44
4.28804e-46
-1.04563e-45
3.9718e-47
2.49047e-46
1.53451e-48
8.52096e-47
-3.32781e-49
1.55884e-47
-9.83828e-50
2.36143e-48
-1.75922e-50
3.05072e-49
-2.48406e-51
3.6119e-50
-3.10547e-52
3.91038e-51
-3.49513e-53
3.98398e-52
-3.66068e-54
3.80968e-53
-3.57894e-55
3.44908e-54
-3.31104e-56
2.8935e-55
-2.72572e-57
4.9865e-57
-7.65792e-59
1.69208e-57
-6.27143e-59
1.85119e-56
-8.75335e-59
5.36152e-57
-5.34995e-59
1.44655e-57
-4.51687e-58
2.76856e-58
-6.81593e-57
1.64858e-58
-1.01671e-55
1.86983e-57
-1.4782e-54
2.85099e-56
-2.09006e-53
4.25283e-55
-2.8739e-52
6.18433e-54
-3.83155e-51
8.74732e-53
-4.95576e-50
1.20373e-51
-6.19054e-49
1.60647e-50
-7.48093e-48
2.08126e-49
-8.68387e-47
2.60486e-48
-9.72016e-46
3.15706e-47
-1.03685e-44
3.67676e-46
-1.0627e-43
4.13598e-45
-1.02494e-42
4.43612e-44
-9.46295e-42
4.58623e-43
-8.03638e-41
4.46766e-42
-6.50747e-40
4.19644e-41
-4.60783e-39
3.64291e-40
-3.08176e-38
3.06762e-39
-1.5385e-37
2.28462e-38
-6.91996e-37
1.64552e-37
-5.64983e-37
8.78129e-37
4.08933e-36
-7.60956e-43
-6.67253e-41
8.62686e-43
-1.39525e-41
1.89017e-43
-2.17127e-42
3.51885e-44
-1.76715e-43
4.01654e-45
6.42031e-45
2.82424e-46
4.88523e-45
-7.96001e-48
1.16085e-45
-7.23978e-48
1.90048e-46
-1.52726e-48
2.71231e-47
-2.44973e-49
3.37526e-48
-3.27553e-50
3.89203e-49
-3.95816e-51
4.13112e-50
-4.35188e-52
4.14477e-51
-4.48038e-53
3.91308e-52
-4.32227e-54
3.49083e-53
-3.95354e-55
2.83515e-54
-3.11797e-56
-8.83772e-56
9.79258e-59
1.4654e-56
-9.9127e-58
3.11431e-55
-1.50767e-57
9.00451e-56
-4.46184e-58
2.42705e-56
-1.83278e-58
4.51371e-57
-1.09181e-57
7.93485e-58
-1.59447e-56
4.97569e-58
-2.31189e-55
5.92955e-57
-3.2595e-54
8.8114e-56
-4.46706e-53
1.27907e-54
-5.93327e-52
1.80535e-53
-7.64054e-51
2.47794e-52
-9.49702e-50
3.29682e-51
-1.14095e-48
4.25517e-50
-1.31562e-47
5.30208e-49
-1.46087e-46
6.3914e-48
-1.54409e-45
7.39592e-47
-1.56481e-44
8.25418e-46
-1.48958e-43
8.76915e-45
-1.35258e-42
8.95704e-44
-1.1263e-41
8.59294e-43
-8.88861e-41
7.90735e-42
-6.10383e-40
6.67205e-41
-3.92337e-39
5.40032e-40
-1.87148e-38
3.7974e-39
-7.97538e-38
2.55562e-38
-6.42016e-38
1.24461e-37
5.57124e-37
-7.55727e-42
-6.02635e-40
8.79848e-42
-1.22716e-40
1.86117e-42
-1.52934e-41
3.12985e-43
-6.41314e-43
3.04791e-44
2.36806e-43
8.44601e-46
6.87711e-44
-3.81763e-46
1.35679e-44
-1.14136e-46
2.04863e-45
-2.02788e-47
2.78154e-46
-3.00979e-48
3.34759e-47
-3.84894e-49
3.76616e-48
-4.51421e-50
3.92296e-49
-4.85794e-51
3.87777e-50
-4.92087e-52
3.61418e-51
-4.68629e-53
3.16221e-52
-4.2356e-54
2.42049e-53
-3.09159e-55
-3.33462e-54
2.11261e-56
9.15612e-56
-1.56044e-56
5.12111e-54
-2.59341e-56
1.47615e-54
-7.59929e-57
3.97351e-55
-1.95631e-57
7.36757e-56
-5.12189e-58
1.25402e-56
-2.31728e-57
1.87235e-57
-3.26742e-56
1.34672e-57
-4.59446e-55
1.6555e-56
-6.27877e-54
2.40403e-55
-8.31168e-53
3.40072e-54
-1.06614e-51
4.6765e-53
-1.31905e-50
6.23547e-52
-1.57614e-49
8.0608e-51
-1.80574e-48
1.00652e-49
-1.99017e-47
1.2146e-48
-2.08448e-46
1.4084e-47
-2.0903e-45
1.57202e-46
-1.96358e-44
1.67358e-45
-1.75597e-43
1.7065e-44
-1.43286e-42
1.64082e-43
-1.10542e-41
1.50127e-42
-7.34565e-41
1.27024e-41
-4.56916e-40
1.01295e-40
-2.05685e-39
7.17792e-40
-8.45115e-39
4.69166e-39
-4.41788e-39
2.43658e-38
1.07258e-37
-7.47685e-41
-5.5132e-39
8.79815e-41
-1.06153e-39
1.76551e-41
-9.27426e-41
2.58296e-42
3.51988e-42
1.86438e-43
3.71428e-42
-1.31864e-44
8.15852e-43
-6.842e-45
1.43889e-43
-1.52444e-45
2.04341e-44
-2.44824e-46
2.66235e-45
-3.43703e-47
3.10988e-46
-4.24114e-48
3.42041e-47
-4.84954e-49
3.4991e-48
-5.11968e-50
3.40902e-49
-5.1091e-51
3.13409e-50
-4.80546e-52
2.66408e-51
-4.28742e-53
1.80868e-52
-2.71283e-54
-7.05875e-53
5.65478e-55
1.12239e-55
-2.46856e-55
8.1986e-53
-4.3571e-55
2.3538e-53
-1.2746e-55
6.32376e-54
-3.2616e-56
1.16902e-54
-6.01311e-57
1.98576e-55
-8.05196e-58
2.85422e-56
2.99727e-57
5.09812e-57
4.72971e-56
2.04252e-56
6.91339e-55
2.96731e-55
9.82696e-54
4.29422e-54
1.35008e-52
6.04376e-53
1.80128e-51
8.26998e-52
2.31116e-50
1.09704e-50
2.87448e-49
1.41134e-49
3.41336e-48
1.75323e-48
3.92214e-47
2.1061e-47
4.25607e-46
2.4296e-46
4.46335e-45
2.70139e-45
4.34253e-44
2.86115e-44
4.08337e-43
2.91051e-43
3.45065e-42
2.7842e-42
2.82671e-41
2.55054e-41
1.9469e-40
2.14714e-40
1.31025e-39
1.72934e-39
6.16116e-39
1.21479e-38
2.86389e-38
8.12882e-38
3.9588e-37
-6.63148e-40
-4.17872e-38
7.57831e-40
-7.77559e-39
1.43137e-40
-2.64134e-40
1.6324e-41
1.16196e-40
3.12677e-43
4.28696e-41
-3.53241e-43
7.95744e-42
-9.28714e-44
1.27909e-42
-1.75166e-44
1.71653e-43
-2.60435e-45
2.14666e-44
-3.48471e-46
2.43325e-45
-4.16174e-47
2.61434e-46
-4.64505e-48
2.62552e-47
-4.81362e-49
2.51974e-48
-4.73359e-50
2.27897e-49
-4.39654e-51
1.8254e-50
-3.8598e-52
8.37156e-52
-1.69551e-53
-1.26586e-51
1.16026e-53
-1.09272e-53
-3.89159e-54
1.28031e-51
-7.15392e-54
3.65726e-52
-2.0868e-54
9.80039e-53
-5.33166e-55
1.80529e-53
-9.80418e-56
3.05994e-54
-1.31498e-56
4.37834e-55
4.63542e-56
6.35959e-56
7.06245e-55
9.04437e-56
9.9664e-54
1.24618e-54
1.36664e-52
1.81132e-53
1.8163e-51
2.56254e-52
2.34057e-50
3.5274e-51
2.91148e-49
4.70937e-50
3.50091e-48
6.10416e-49
4.04075e-47
7.64441e-48
4.49209e-46
9.2719e-47
4.75391e-45
1.08081e-45
4.82515e-44
1.2172e-44
4.60071e-43
1.30739e-43
4.18645e-42
1.35409e-42
3.49391e-41
1.32218e-41
2.76557e-40
1.24583e-40
1.90498e-39
1.08627e-39
1.22937e-38
9.20231e-39
5.88566e-38
6.91165e-38
2.51761e-37
5.02506e-37
2.71278e-36
-6.4218e-39
-3.4833e-37
6.22524e-39
-5.78389e-38
1.03974e-39
1.57458e-39
6.78413e-41
1.544e-39
-1.09001e-41
4.22225e-40
-5.25897e-42
7.01716e-41
-1.08248e-42
1.05148e-41
-1.83868e-43
1.3431e-42
-2.57692e-44
1.61993e-43