/*--------------------------------*- C++ -*----------------------------------*\
| =========                 |                                                 |
| \\      /  F ield         | OpenFOAM: The Open Source CFD Toolbox           |
|  \\    /   O peration     | Version:  2.4.0                                 |
|   \\  /    A nd           | Web:      www.OpenFOAM.org                      |
|    \\/     M anipulation  |                                                 |
\*---------------------------------------------------------------------------*/
FoamFile
{
    version     2.0;
    format      ascii;
    class       volVectorField;
    location    "0.8";
    object      U;
}
// * * * * * * * * * * * * * * * * * * * * * * * * * * * * * * * * * * * * * //

dimensions      [0 1 -1 0 0 0 0];

internalField   nonuniform List<vector> 
1935
(
(1.25505e-35 4.03695e-36 0)
(1.02927e-34 2.5781e-35 0)
(4.95875e-34 1.63516e-34 0)
(4.40924e-33 1.1931e-34 0)
(4.00528e-33 -3.13608e-34 0)
(-4.00283e-33 -3.13046e-34 0)
(-4.39408e-33 1.24319e-34 0)
(-3.79346e-34 1.9382e-34 0)
(4.98092e-34 2.15736e-34 0)
(4.9073e-33 2.92344e-34 0)
(8.53076e-33 -1.62942e-34 0)
(6.14131e-34 -4.32917e-34 0)
(-3.39068e-33 1.19309e-34 0)
(4.12349e-33 2.82813e-34 0)
(4.42458e-33 -1.24392e-34 0)
(4.98092e-34 -1.64164e-34 0)
(1.0338e-34 -2.58692e-35 0)
(1.31916e-35 -4.44892e-36 0)
(1.94453e-36 -5.70499e-37 0)
(2.34332e-37 -7.36928e-38 0)
(2.88695e-38 -8.36702e-39 0)
(3.18341e-39 -9.31391e-40 0)
(3.45881e-40 -9.57089e-41 0)
(3.83049e-41 -8.65491e-42 0)
(3.85675e-41 8.73646e-42 0)
(3.48976e-40 9.65274e-41 0)
(3.21479e-39 9.40038e-40 0)
(2.91796e-38 8.45308e-39 0)
(2.37163e-37 7.45266e-38 0)
(1.97015e-36 5.77915e-37 0)
(1.33964e-35 4.51405e-36 0)
(1.05084e-34 2.63641e-35 0)
(5.09281e-34 1.68026e-34 0)
(4.51429e-33 1.45665e-34 0)
(4.51429e-33 -1.45665e-34 0)
(5.09281e-34 -1.68026e-34 0)
(1.05084e-34 -2.63641e-35 0)
(1.33964e-35 -4.51405e-36 0)
(1.97015e-36 -5.77916e-37 0)
(2.37158e-37 -7.45342e-38 0)
(2.91524e-38 -8.50771e-39 0)
(3.06161e-39 -1.27105e-39 0)
(-2.43727e-40 -1.97108e-39 0)
(-2.11848e-39 -7.33628e-39 0)
(4.82759e-36 -1.82258e-36 0)
(3.52496e-35 -1.37569e-35 0)
(1.63317e-34 -8.71117e-35 0)
(9.23166e-34 -6.3325e-35 0)
(7.90771e-34 1.66737e-34 0)
(-7.8975e-34 1.66464e-34 0)
(-9.17113e-34 -6.58541e-35 0)
(-1.22641e-34 -1.03177e-34 0)
(1.64241e-34 -1.14978e-34 0)
(1.08739e-33 -1.55251e-34 0)
(1.75449e-33 8.68337e-35 0)
(2.04702e-34 2.30062e-34 0)
(-5.85863e-34 -6.33245e-35 0)
(8.32136e-34 -1.50432e-34 0)
(9.29294e-34 6.5888e-35 0)
(1.64241e-34 8.74254e-35 0)
(3.54578e-35 1.38144e-35 0)
(5.23834e-36 2.25655e-36 0)
(8.02377e-37 2.77233e-37 0)
(1.0327e-37 3.39833e-38 0)
(1.30933e-38 3.69199e-39 0)
(1.49725e-39 3.94369e-40 0)
(1.6614e-40 3.91333e-41 0)
(1.88557e-41 3.44045e-42 0)
(1.89887e-41 -3.4712e-42 0)
(1.67683e-40 -3.94499e-41 0)
(1.51265e-39 -3.97806e-40 0)
(1.32419e-38 -3.72731e-39 0)
(1.04598e-37 -3.43378e-38 0)
(8.13939e-37 -2.80523e-37 0)
(5.32819e-36 -2.28676e-36 0)
(3.61539e-35 -1.40569e-35 0)
(1.68651e-34 -8.93973e-35 0)
(9.59306e-34 -7.73776e-35 0)
(9.59306e-34 7.73776e-35 0)
(1.68651e-34 8.93973e-35 0)
(3.61539e-35 1.40569e-35 0)
(5.32819e-36 2.28676e-36 0)
(8.13933e-37 2.80516e-37 0)
(1.04556e-37 3.42832e-38 0)
(1.29875e-38 3.32843e-39 0)
(7.04664e-41 -2.07326e-39 0)
(-5.46103e-39 -1.42417e-38 0)
(-2.06799e-38 -5.74553e-38 0)
(1.42424e-36 -7.46002e-37 0)
(8.73428e-36 -5.28534e-36 0)
(3.13047e-35 -2.6573e-35 0)
(1.37693e-34 -1.75158e-35 0)
(1.13915e-34 5.04314e-35 0)
(-1.13588e-34 5.03084e-35 0)
(-1.35951e-34 -1.85694e-35 0)
(-2.10352e-35 -3.2811e-35 0)
(3.15972e-35 -3.72985e-35 0)
(1.69285e-34 -4.60864e-35 0)
(2.61833e-34 2.64474e-35 0)
(4.17923e-35 6.79469e-35 0)
(-7.20534e-35 -1.75155e-35 0)
(1.24397e-34 -4.40858e-35 0)
(1.39459e-34 1.85853e-35 0)
(3.15971e-35 2.67146e-35 0)
(8.79095e-36 5.30994e-36 0)
(1.48425e-36 9.31087e-37 0)
(2.52579e-37 1.24843e-37 0)
(3.48415e-38 1.59833e-38 0)
(4.66002e-39 1.82328e-39 0)
(5.54407e-40 2.00908e-40 0)
(6.34772e-41 2.05914e-41 0)
(7.39808e-42 1.84922e-42 0)
(7.45192e-42 -1.8665e-42 0)
(6.40926e-41 -2.07658e-41 0)
(5.60422e-40 -2.02756e-40 0)
(4.71659e-39 -1.84181e-39 0)
(3.53311e-38 -1.61632e-38 0)
(2.56672e-37 -1.26462e-37 0)
(1.51431e-36 -9.45205e-37 0)
(9.00757e-36 -5.41839e-36 0)
(3.28195e-35 -2.75172e-35 0)
(1.46695e-34 -2.2932e-35 0)
(1.46695e-34 2.29321e-35 0)
(3.28195e-35 2.75172e-35 0)
(9.00757e-36 5.41839e-36 0)
(1.5143e-36 9.452e-37 0)
(2.5663e-37 1.26415e-37 0)
(3.50291e-38 1.57954e-38 0)
(2.85443e-39 -8.75731e-40 0)
(-1.01342e-38 -1.68541e-38 0)
(-4.22962e-38 -1.00092e-37 0)
(-1.58119e-37 -4.10248e-37 0)
(2.98001e-37 -2.50901e-37 0)
(1.57648e-36 -1.60777e-36 0)
(4.37915e-36 -7.45931e-36 0)
(1.57308e-35 -4.73789e-36 0)
(1.26846e-35 1.41489e-35 0)
(-1.26109e-35 1.41061e-35 0)
(-1.53703e-35 -5.08567e-36 0)
(-2.48997e-36 -9.37563e-36 0)
(4.44411e-36 -1.07215e-35 0)
(2.01734e-35 -1.28531e-35 0)
(3.02932e-35 7.41323e-36 0)
(6.31513e-36 1.88862e-35 0)
(-6.35299e-36 -4.73719e-36 0)
(1.46197e-35 -1.21933e-35 0)
(1.60964e-35 5.09153e-36 0)
(4.44411e-36 7.50681e-36 0)
(1.58699e-36 1.61402e-36 0)
(3.03013e-37 3.05705e-37 0)
(5.61037e-38 4.35553e-38 0)
(8.20791e-39 5.87835e-39 0)
(1.14393e-39 6.99348e-40 0)
(1.40618e-40 7.97771e-41 0)
(1.6498e-41 8.40818e-42 0)
(1.96554e-42 7.71115e-43 0)
(1.98022e-42 -7.78586e-43 0)
(1.66636e-41 -8.48229e-42 0)
(1.42211e-40 -8.05475e-41 0)
(1.15859e-39 -7.06895e-40 0)
(8.33167e-39 -5.94955e-39 0)
(5.71034e-38 -4.41732e-38 0)
(3.10044e-37 -3.10867e-37 0)
(1.6346e-36 -1.65154e-36 0)
(4.68872e-36 -7.76756e-36 0)
(1.73639e-35 -6.38803e-36 0)
(1.73639e-35 6.38803e-36 0)
(4.68872e-36 7.76756e-36 0)
(1.6346e-36 1.65153e-36 0)
(3.10009e-37 3.10834e-37 0)
(5.68236e-38 4.388e-38 0)
(6.27083e-39 3.62299e-39 0)
(-1.17109e-38 -1.6716e-38 0)
(-7.49026e-38 -1.11033e-37 0)
(-3.02713e-37 -6.64815e-37 0)
(-1.14931e-36 -2.78756e-36 0)
(4.36166e-38 -1.14389e-37 0)
(2.6411e-37 -3.72753e-37 0)
(5.07026e-37 -1.52165e-36 0)
(1.32153e-36 -9.24845e-37 0)
(1.03062e-36 2.85107e-36 0)
(-1.01524e-36 2.84158e-36 0)
(-1.25261e-36 -1.00074e-36 0)
(-1.88078e-37 -1.92279e-36 0)
(5.17574e-37 -2.21117e-36 0)
(1.83698e-36 -2.5757e-36 0)
(2.664e-36 1.49345e-36 0)
(8.30241e-37 3.77262e-36 0)
(-1.9651e-37 -9.20612e-37 0)
(1.35568e-36 -2.42433e-36 0)
(1.38791e-36 1.00217e-36 0)
(5.17573e-37 1.51597e-36 0)
(2.60994e-37 3.49266e-37 0)
(5.5661e-38 6.98538e-38 0)
(1.11617e-38 1.04507e-38 0)
(1.71525e-39 1.46476e-39 0)
(2.48027e-40 1.79996e-40 0)
(3.13395e-41 2.10505e-41 0)
(3.75694e-42 2.26637e-42 0)
(4.5602e-43 2.11053e-43 0)
(4.59503e-43 -2.13156e-43 0)
(3.79581e-42 -2.28697e-42 0)
(3.17079e-41 -2.12613e-41 0)
(2.51358e-40 -1.82027e-40 0)
(1.74275e-39 -1.4835e-39 0)
(1.13776e-38 -1.06092e-38 0)
(5.71207e-38 -7.1134e-38 0)
(2.70378e-37 -3.5821e-37 0)
(5.61574e-37 -1.57501e-36 0)
(1.58979e-36 -1.27864e-36 0)
(1.58979e-36 1.27864e-36 0)
(5.61571e-37 1.575e-36 0)
(2.70352e-37 3.58189e-37 0)
(5.68964e-38 7.09432e-38 0)
(9.60251e-39 8.92269e-39 0)
(-1.15062e-38 -1.20737e-38 0)
(-8.37875e-38 -1.02999e-37 0)
(-4.99343e-37 -6.71153e-37 0)
(-2.06086e-36 -4.11146e-36 0)
(-7.99097e-36 -1.77545e-35 0)
(-8.44289e-38 -4.09728e-37 0)
(7.70724e-38 -2.41764e-37 0)
(6.90052e-38 -4.01049e-37 0)
(7.8397e-38 -1.96085e-37 0)
(4.93583e-38 5.26363e-37 0)
(-4.28893e-38 5.29306e-37 0)
(-5.39593e-38 -1.84503e-37 0)
(-2.3966e-39 -3.62764e-37 0)
(5.31169e-38 -4.18375e-37 0)
(1.18314e-37 -4.79421e-37 0)
(1.59441e-37 2.78322e-37 0)
(1.00822e-37 7.00398e-37 0)
(5.52297e-38 -1.67922e-37 0)
(9.61861e-38 -4.48419e-37 0)
(7.66347e-38 1.84673e-37 0)
(5.31144e-38 2.83111e-37 0)
(3.92639e-38 6.79972e-38 0)
(9.17393e-39 1.42597e-38 0)
(1.95694e-39 2.21708e-39 0)
(3.12886e-40 3.21178e-40 0)
(4.65917e-41 4.05329e-41 0)
(6.02373e-42 4.84342e-42 0)
(7.35144e-43 5.30739e-43 0)
(9.0672e-44 5.00728e-44 0)
(9.13781e-44 -5.05835e-44 0)
(7.42946e-43 -5.35685e-43 0)
(6.09678e-42 -4.89344e-42 0)
(4.72423e-41 -4.10075e-41 0)
(3.18158e-40 -3.25479e-40 0)
(1.99734e-39 -2.25266e-39 0)
(9.43875e-39 -1.45393e-38 0)
(4.08959e-38 -6.98834e-38 0)
(6.02378e-38 -2.95073e-37 0)
(1.06095e-37 -2.37765e-37 0)
(1.06094e-37 2.37764e-37 0)
(6.0222e-38 2.95062e-37 0)
(4.07491e-38 6.97772e-38 0)
(8.14342e-39 1.35429e-38 0)
(-8.38534e-39 -6.67617e-39 0)
(-7.8401e-38 -7.2607e-38 0)
(-5.08775e-37 -5.66641e-37 0)
(-3.0918e-36 -3.78198e-36 0)
(-1.31233e-35 -2.39109e-35 0)
(-5.21007e-35 -1.07366e-34 0)
(-5.83989e-37 -2.54289e-36 0)
(3.0344e-37 -1.10576e-36 0)
(1.36959e-37 -8.10489e-37 0)
(8.71988e-38 -2.02734e-37 0)
(1.74768e-38 5.09124e-38 0)
(8.72719e-39 8.1862e-38 0)
(5.94598e-39 -3.10528e-38 0)
(2.45272e-39 -6.07731e-38 0)
(5.22547e-39 -7.01582e-38 0)
(1.77255e-39 -7.92028e-38 0)
(-1.12229e-41 4.60318e-38 0)
(1.22629e-38 1.15433e-37 0)
(1.60465e-38 -2.72219e-38 0)
(3.74659e-39 -7.36545e-38 0)
(-1.63389e-39 3.02263e-38 0)
(5.21035e-39 4.69163e-38 0)
(5.74256e-39 1.16835e-38 0)
(1.43384e-39 2.54427e-39 0)
(3.206e-40 4.08473e-40 0)
(5.28375e-41 6.07701e-41 0)
(8.05596e-42 7.84162e-42 0)
(1.06102e-42 9.53802e-43 0)
(1.31425e-43 1.06095e-43 0)
(1.64268e-44 1.01203e-44 0)
(1.65568e-44 -1.02256e-44 0)
(1.3285e-43 -1.07105e-43 0)
(1.07422e-42 -9.63912e-43 0)
(8.17208e-42 -7.93636e-42 0)
(5.37641e-41 -6.16154e-41 0)
(3.27565e-40 -4.15338e-40 0)
(1.47836e-39 -2.59699e-39 0)
(6.00818e-39 -1.20292e-38 0)
(6.30733e-39 -4.90364e-38 0)
(2.56771e-39 -3.92437e-38 0)
(2.56028e-39 3.92389e-38 0)
(6.2251e-39 4.89891e-38 0)
(5.23698e-39 1.15503e-38 0)
(-5.41618e-39 -1.95413e-39 0)
(-5.579e-38 -4.10022e-38 0)
(-4.3377e-37 -3.44846e-37 0)
(-2.87026e-36 -2.74909e-36 0)
(-1.79445e-35 -1.89777e-35 0)
(-7.88736e-35 -1.2498e-34 0)
(-3.23524e-34 -5.91918e-34 0)
(-3.17751e-36 -1.50665e-35 0)
(2.46935e-36 -6.48397e-36 0)
(9.63494e-37 -4.62118e-36 0)
(5.89929e-37 -1.03973e-36 0)
(1.31999e-37 -2.00469e-37 0)
(2.96809e-38 -1.96008e-38 0)
(6.28995e-39 -9.55411e-39 0)
(1.23185e-39 -1.01839e-38 0)
(6.05983e-40 -1.11541e-38 0)
(-9.81757e-40 -1.23872e-38 0)
(-1.83651e-39 7.19501e-39 0)
(1.51545e-39 1.80062e-38 0)
(2.86449e-39 -4.19321e-39 0)
(-2.78684e-40 -1.14571e-38 0)
(-1.243e-39 4.69347e-39 0)
(5.18077e-40 7.34655e-39 0)
(8.05757e-40 1.87849e-39 0)
(2.10843e-40 4.21854e-40 0)
(4.87788e-41 6.94691e-41 0)
(8.23287e-42 1.05634e-41 0)
(1.27905e-42 1.38791e-42 0)
(1.71072e-43 1.71323e-43 0)
(2.14547e-44 1.92944e-44 0)
(2.71233e-45 1.85747e-45 0)
(2.73409e-45 -1.87713e-45 0)
(2.16916e-44 -1.94815e-44 0)
(1.73249e-43 -1.73179e-43 0)
(1.29798e-42 -1.40512e-42 0)
(8.38197e-42 -1.0715e-41 0)
(4.98817e-41 -7.06817e-41 0)
(2.17751e-40 -4.30992e-40 0)
(8.45932e-40 -1.93706e-39 0)
(6.77252e-40 -7.69628e-39 0)
(-6.68176e-40 -6.13043e-39 0)
(-7.01719e-40 6.11138e-39 0)
(3.02711e-40 7.50971e-39 0)
(-2.70858e-39 2.37087e-41 0)
(-3.20321e-38 -1.80282e-38 0)
(-2.67161e-37 -1.71311e-37 0)
(-2.11247e-36 -1.46361e-36 0)
(-1.43713e-35 -1.20867e-35 0)
(-9.2861e-35 -8.746e-35 0)
(-4.25916e-34 -6.11679e-34 0)
(-1.81022e-33 -3.11867e-33 0)
(-1.26925e-35 -8.52438e-35 0)
(2.10371e-35 -3.49913e-35 0)
(7.12124e-36 -2.49687e-35 0)
(3.72907e-36 -5.45088e-36 0)
(7.9814e-37 -1.08738e-36 0)
(1.63367e-37 -1.62672e-37 0)
(2.5685e-38 -2.41441e-38 0)
(3.81293e-39 -4.33348e-39 0)
(5.30145e-40 -1.97965e-39 0)
(-1.65744e-40 -1.84479e-39 0)
(-3.72354e-40 1.04665e-39 0)
(1.92153e-40 2.62333e-39 0)
(4.32321e-40 -6.04083e-40 0)
(-9.35819e-41 -1.66531e-39 0)
(-2.4032e-40 6.81029e-40 0)
(5.49122e-41 1.07423e-39 0)
(1.09774e-40 2.81029e-40 0)
(2.96419e-41 6.46833e-41 0)
(7.03144e-42 1.08779e-41 0)
(1.20886e-42 1.68376e-42 0)
(1.90661e-43 2.24597e-43 0)
(2.58239e-44 2.80676e-44 0)
(3.27218e-45 3.19455e-45 0)
(4.17638e-46 3.09961e-46 0)
(4.21028e-46 -3.13289e-46 0)
(3.30885e-45 -3.22602e-45 0)
(2.61581e-44 -2.83773e-44 0)
(1.9354e-43 -2.27444e-43 0)
(1.23128e-42 -1.70857e-42 0)
(7.1948e-42 -1.1074e-41 0)
(3.06447e-41 -6.61386e-41 0)
(1.15437e-40 -2.90199e-40 0)
(7.58923e-41 -1.12797e-39 0)
(-1.76562e-40 -8.98483e-40 0)
(-3.11006e-40 8.43222e-40 0)
(-1.44292e-39 5.80493e-40 0)
(-1.45109e-38 -5.40254e-39 0)
(-1.35158e-37 -5.58178e-38 0)
(-1.14476e-36 -5.31486e-37 0)
(-9.30984e-36 -4.69847e-36 0)
(-6.55001e-35 -4.0825e-35 0)
(-4.41896e-34 -3.18456e-34 0)
(-2.13262e-33 -2.43383e-33 0)
(-9.62823e-33 -1.39076e-32 0)
(-1.25963e-35 -4.30492e-34 0)
(1.80138e-34 -1.78109e-34 0)
(5.13816e-35 -1.30271e-34 0)
(2.14679e-35 -2.71577e-35 0)
(4.28107e-36 -5.21203e-36 0)
(8.30847e-37 -7.5859e-37 0)
(1.25055e-37 -1.05069e-37 0)
(1.78971e-38 -1.29606e-38 0)
(2.24768e-39 -1.71336e-39 0)
(2.32686e-40 -4.10508e-40 0)
(-2.7946e-41 1.29741e-40 0)
(2.71326e-41 3.62747e-40 0)
(5.92506e-41 -8.32408e-41 0)
(-1.5485e-41 -2.3079e-40 0)
(-3.56762e-41 9.4248e-41 0)
(6.15643e-42 1.49596e-40 0)
(1.4345e-41 3.98506e-41 0)
(3.96269e-42 9.34738e-42 0)
(9.57901e-43 1.59789e-42 0)
(1.6719e-43 2.50749e-43 0)
(2.66983e-44 3.38446e-44 0)
(3.6551e-45 4.27014e-45 0)
(4.67229e-46 4.90043e-46 0)
(6.01307e-47 4.78373e-47 0)
(6.062e-47 -4.83575e-47 0)
(4.72476e-46 -4.9494e-46 0)
(3.70232e-45 -4.31809e-45 0)
(2.70975e-44 -3.42832e-44 0)
(1.70206e-43 -2.5455e-43 0)
(9.78742e-43 -1.6278e-42 0)
(4.07599e-42 -9.5691e-42 0)
(1.48094e-41 -4.12625e-41 0)
(5.38267e-42 -1.58177e-40 0)
(-6.7674e-41 -1.3487e-40 0)
(-4.78154e-40 2.72627e-42 0)
(-4.69007e-39 -1.17059e-39 0)
(-4.59403e-38 -1.4037e-38 0)
(-4.33366e-37 -1.4141e-37 0)
(-3.76114e-36 -1.39523e-36 0)
(-3.15395e-35 -1.30052e-35 0)
(-2.30644e-34 -1.23199e-34 0)
(-1.62887e-33 -1.08083e-33 0)
(-8.34863e-33 -9.51095e-33 0)
(-3.99862e-32 -6.32969e-32 0)
(5.35968e-34 -2.5289e-33 0)
(1.6856e-33 -8.74697e-34 0)
(4.1638e-34 -6.09248e-34 0)
(1.41219e-34 -1.20667e-34 0)
(2.56438e-35 -2.19357e-35 0)
(4.67481e-36 -3.06619e-36 0)
(6.72726e-37 -4.09683e-37 0)
(9.33115e-38 -4.85308e-38 0)
(1.14053e-38 -5.54657e-39 0)
(1.33137e-39 -6.06672e-40 0)
(1.38297e-40 -4.53661e-41 0)
(1.7023e-41 2.87463e-41 0)
(6.94895e-42 -8.30512e-42 0)
(-1.43245e-42 -2.17992e-41 0)
(-3.44904e-42 8.882e-42 0)
(5.13306e-43 1.41655e-41 0)
(1.31212e-42 3.83992e-42 0)
(3.6822e-43 9.23163e-43 0)
(9.02013e-44 1.60934e-43 0)
(1.59171e-44 2.57402e-44 0)
(2.56452e-45 3.53025e-45 0)
(3.53826e-46 4.51864e-46 0)
(4.55119e-47 5.25031e-47 0)
(5.89079e-48 5.17632e-48 0)
(5.92844e-48 -5.23305e-48 0)
(4.58611e-47 -5.30292e-47 0)
(3.56071e-46 -4.56923e-46 0)
(2.57038e-45 -3.57535e-45 0)
(1.57641e-44 -2.61169e-44 0)
(8.6375e-44 -1.63715e-43 0)
(3.05186e-43 -9.41589e-43 0)
(4.48497e-43 -3.92842e-42 0)
(-1.02888e-41 -1.43695e-41 0)
(-1.29321e-40 -5.37586e-42 0)
(-1.38821e-39 8.26662e-41 0)
(-1.46639e-38 7.61348e-40 0)
(-1.464e-37 7.39336e-39 0)
(-1.41826e-36 6.43415e-38 0)
(-1.26725e-35 4.28322e-37 0)
(-1.10733e-34 4.12531e-38 0)
(-8.45782e-34 -6.41803e-35 0)
(-6.41126e-33 -1.46266e-33 0)
(-3.52777e-32 -2.0907e-32 0)
(-1.99836e-31 -2.08233e-31 0)
(1.2237e-32 -1.33723e-32 0)
(2.16055e-32 -5.21978e-33 0)
(4.18392e-33 -3.84378e-33 0)
(1.00718e-33 -6.65373e-34 0)
(1.59163e-34 -1.15339e-34 0)
(2.59063e-35 -1.52815e-35 0)
(3.48946e-36 -1.98626e-36 0)
(4.59936e-37 -2.28583e-37 0)
(5.42779e-38 -2.55616e-38 0)
(6.18011e-39 -2.65007e-39 0)
(6.52204e-40 -2.64138e-40 0)
(6.64913e-41 -2.2207e-41 0)
(6.78077e-42 -2.95462e-42 0)
(4.69626e-43 -2.04237e-42 0)
(-2.09913e-43 7.34048e-43 0)
(4.09293e-44 1.20162e-42 0)
(9.786e-44 3.29723e-43 0)
(2.77767e-44 7.99802e-44 0)
(6.9093e-45 1.40637e-44 0)
(1.23476e-45 2.26311e-45 0)
(2.01323e-46 3.12133e-46 0)
(2.80614e-47 4.01084e-47 0)
(3.64231e-48 4.67643e-48 0)
(4.7595e-49 4.62199e-49 0)
(4.85547e-49 -4.64487e-49 0)
(3.77217e-48 -4.68421e-48 0)
(2.96767e-47 -3.99867e-47 0)
(2.21506e-46 -3.08003e-46 0)
(1.48552e-45 -2.18383e-45 0)
(1.00125e-44 -1.27962e-44 0)
(6.54813e-44 -6.18549e-44 0)
(5.47993e-43 -8.83177e-44 0)
(5.24476e-42 1.82842e-42 0)
(5.8235e-41 3.54293e-41 0)
(6.28551e-40 4.14897e-40 0)
(6.51883e-39 4.47177e-39 0)
(6.38608e-38 4.59562e-38 0)
(6.01953e-37 4.26416e-37 0)
(5.25422e-36 3.34355e-36 0)
(4.41543e-35 1.27427e-35 0)
(3.27594e-34 -2.06946e-34 0)
(2.33474e-33 -6.87707e-33 0)
(1.24469e-32 -1.15027e-31 0)
(6.19679e-32 -1.39554e-30 0)
(1.61828e-31 -1.02766e-31 0)
(1.98056e-31 -1.35419e-32 0)
(2.71024e-32 -1.224e-33 0)
(6.17197e-33 -8.35253e-35 0)
(8.79068e-34 -3.98753e-36 0)
(1.38172e-34 -8.64546e-38 0)
(1.77698e-35 1.06093e-38 0)
(2.28786e-36 1.93865e-39 0)
(2.63053e-37 2.29727e-40 0)
(2.94605e-38 2.28267e-41 0)
(3.05883e-39 2.24621e-42 0)
(3.07127e-40 4.13749e-43 0)
(2.91696e-41 -3.35498e-44 0)
(2.6621e-42 -1.39371e-43 0)
(2.13976e-43 5.74661e-44 0)
(2.2547e-44 9.2253e-44 0)
(9.02654e-45 2.55966e-44 0)
(2.25669e-45 6.28767e-45 0)
(5.43903e-46 1.11794e-45 0)
(9.68976e-47 1.81692e-46 0)
(1.58241e-47 2.5279e-47 0)
(2.21363e-48 3.27271e-48 0)
(2.88411e-49 3.84107e-49 0)
(3.99371e-50 3.81295e-50 0)
(7.04914e-50 -3.87661e-50 0)
(7.63998e-49 -3.9101e-49 0)
(8.94485e-48 -3.35381e-48 0)
(1.08614e-46 -2.6232e-47 0)
(1.3391e-45 -1.93051e-46 0)
(1.67058e-44 -1.25389e-45 0)
(2.05683e-43 -7.93359e-45 0)
(2.49139e-42 -4.53568e-44 0)
(2.91807e-41 -3.28098e-43 0)
(3.31502e-40 -2.79298e-42 0)
(3.60014e-39 -3.07937e-41 0)
(3.77555e-38 -3.31338e-40 0)
(3.74229e-37 -3.3392e-39 0)
(3.58352e-36 -2.88127e-38 0)
(3.17751e-35 -1.68823e-37 0)
(2.73423e-34 9.31632e-37 0)
(2.07533e-33 5.27936e-35 0)
(1.54171e-32 1.1396e-33 0)
(8.54292e-32 1.71018e-32 0)
(4.70903e-31 1.93504e-31 0)
(1.82728e-32 -1.00208e-31 0)
(1.84766e-32 -1.04038e-32 0)
(3.64893e-33 2.37472e-33 0)
(8.98551e-34 5.60604e-34 0)
(1.44787e-34 1.09686e-34 0)
(2.39503e-35 1.50698e-35 0)
(3.26381e-36 1.98644e-36 0)
(4.34155e-37 2.29602e-37 0)
(5.15939e-38 2.57032e-38 0)
(5.90792e-39 2.66305e-39 0)
(6.26687e-40 2.66745e-40 0)
(6.39377e-41 2.5268e-41 0)
(6.1609e-42 2.3065e-42 0)
(5.70833e-43 1.91231e-43 0)
(4.91938e-44 2.14929e-44 0)
(4.52482e-45 8.48686e-45 0)
(8.88531e-46 2.09537e-45 0)
(1.82717e-46 4.99189e-46 0)
(4.12413e-47 8.84467e-47 0)
(7.25032e-48 1.43858e-47 0)
(1.18175e-48 2.00742e-48 0)
(1.65742e-49 2.60563e-49 0)
(2.16679e-50 3.06526e-50 0)
(3.03665e-51 2.87298e-51 0)
(5.651e-51 -5.81056e-51 0)
(6.18868e-50 -7.17811e-50 0)
(7.27518e-49 -8.59258e-49 0)
(8.81172e-48 -1.04983e-47 0)
(1.07827e-46 -1.31699e-46 0)
(1.32683e-45 -1.66228e-45 0)
(1.60712e-44 -2.10216e-44 0)
(1.9062e-43 -2.60947e-43 0)
(2.18466e-42 -3.17419e-42 0)
(2.41498e-41 -3.72621e-41 0)
(2.55252e-40 -4.23344e-40 0)
(2.58131e-39 -4.56912e-39 0)
(2.47103e-38 -4.68307e-38 0)
(2.24638e-37 -4.3008e-37 0)
(1.90084e-36 -3.25177e-36 0)
(1.50633e-35 -9.06508e-36 0)
(1.07017e-34 2.91227e-34 0)
(6.80205e-34 8.37626e-33 0)
(3.433e-33 1.36036e-31 0)
(1.18071e-32 1.62193e-30 0)
(4.2136e-33 -1.04596e-32 0)
(-2.04311e-34 -1.62735e-33 0)
(8.16368e-35 2.87932e-34 0)
(7.22927e-35 8.98952e-35 0)
(1.63872e-35 1.89994e-35 0)
(3.40614e-36 2.79178e-36 0)
(5.25276e-37 3.81319e-37 0)
(7.63975e-38 4.56212e-38 0)
(9.63772e-39 5.22564e-39 0)
(1.15508e-39 5.53472e-40 0)
(1.26754e-40 5.63588e-41 0)
(1.32849e-41 5.42015e-42 0)
(1.30728e-42 5.01766e-43 0)
(1.23366e-43 4.36415e-44 0)
(1.09875e-44 4.11244e-45 0)
(9.73624e-46 8.23913e-46 0)
(1.17534e-46 1.69353e-46 0)
(1.74383e-47 3.79166e-47 0)
(3.30239e-48 6.63341e-48 0)
(5.49077e-49 1.07678e-48 0)
(8.75162e-50 1.50619e-49 0)
(1.21854e-50 1.96111e-50 0)
(1.53365e-51 2.31634e-51 0)
(-6.38745e-52 2.38807e-52 0)
(-1.25162e-50 -1.12933e-52 0)
(-1.84791e-49 -5.17179e-52 0)
(-2.64463e-48 7.00242e-51 0)
(-3.67967e-47 2.31604e-49 0)
(-4.96421e-46 4.26154e-48 0)
(-6.50624e-45 6.55514e-47 0)
(-8.24315e-44 9.10214e-46 0)
(-1.01324e-42 1.18425e-44 0)
(-1.19813e-41 1.46924e-43 0)
(-1.37267e-40 1.74316e-42 0)
(-1.50165e-39 2.01717e-41 0)
(-1.59097e-38 2.27925e-40 0)
(-1.59015e-37 2.67852e-39 0)
(-1.54287e-36 3.41954e-38 0)
(-1.38076e-35 5.16751e-37 0)
(-1.20923e-34 8.63178e-36 0)
(-9.25541e-34 1.46206e-34 0)
(-7.03815e-33 2.21222e-33 0)
(-3.88234e-32 2.77873e-32 0)
(-2.20946e-31 2.58336e-31 0)
(4.99073e-34 -2.1146e-33 0)
(-1.51871e-34 -3.37978e-34 0)
(-2.18148e-35 1.80101e-35 0)
(2.88072e-36 1.098e-35 0)
(1.30766e-36 2.83399e-36 0)
(3.49606e-37 4.61061e-37 0)
(6.04163e-38 6.81476e-38 0)
(9.43214e-39 8.62451e-39 0)
(1.24877e-39 1.03296e-39 0)
(1.54925e-40 1.13179e-40 0)
(1.74673e-41 1.18427e-41 0)
(1.86933e-42 1.16362e-42 0)
(1.87165e-43 1.09695e-43 0)
(1.79173e-44 9.79293e-45 0)
(1.62299e-45 8.74249e-46 0)
(1.43456e-46 1.07126e-46 0)
(1.45119e-47 1.60242e-47 0)
(1.72098e-48 3.02995e-48 0)
(2.6824e-49 5.02282e-49 0)
(4.10521e-50 7.97819e-50 0)
(6.29882e-51 1.10842e-50 0)
(8.66304e-52 1.44047e-51 0)
(1.33118e-52 1.81799e-52 0)
(3.3639e-52 2.02264e-52 0)
(4.80982e-51 2.8293e-51 0)
(6.97805e-50 4.24739e-50 0)
(9.85303e-49 6.21709e-49 0)
(1.35377e-47 8.85012e-48 0)
(1.80389e-46 1.22604e-46 0)
(2.33315e-45 1.64775e-45 0)
(2.91477e-44 2.15157e-44 0)
(3.52519e-43 2.71596e-43 0)
(4.09542e-42 3.32479e-42 0)
(4.59328e-41 3.91502e-41 0)
(4.9089e-40 4.46347e-40 0)
(5.05142e-39 4.86016e-39 0)
(4.88949e-38 5.12417e-38 0)
(4.54918e-37 5.11125e-37 0)
(3.88796e-36 4.97139e-36 0)
(3.19393e-35 4.52805e-35 0)
(2.28159e-34 4.11252e-34 0)
(1.56243e-33 3.40006e-33 0)
(7.73687e-33 2.79726e-32 0)
(3.54931e-32 1.73848e-31 0)
(7.16456e-35 -2.44622e-34 0)
(-3.21741e-35 -4.47604e-35 0)
(-5.80682e-36 -3.77496e-37 0)
(-3.77988e-37 9.4069e-37 0)
(5.79383e-38 3.01551e-37 0)
(3.02532e-38 5.39191e-38 0)
(6.21997e-39 8.48404e-39 0)
(1.07076e-39 1.12372e-39 0)
(1.50378e-40 1.39185e-40 0)
(1.94631e-41 1.5665e-41 0)
(2.26333e-42 1.67363e-42 0)
(2.48117e-43 1.67334e-43 0)
(2.53183e-44 1.60014e-44 0)
(2.46156e-45 1.45028e-45 0)
(2.26288e-46 1.28574e-46 0)
(2.00992e-47 1.31168e-47 0)
(1.86507e-48 1.56871e-48 0)
(1.88594e-49 2.45237e-49 0)
(2.37883e-50 3.75053e-50 0)
(3.20611e-51 5.74067e-51 0)
(4.58508e-52 7.86711e-52 0)
(7.04487e-53 1.02342e-52 0)
(1.57746e-52 2.39346e-53 0)
(2.30269e-51 1.89307e-52 0)
(3.4449e-50 2.89044e-51 0)
(5.02805e-49 4.33422e-50 0)
(7.14096e-48 6.33925e-49 0)
(9.87294e-47 9.02278e-48 0)
(1.32444e-45 1.25045e-46 0)
(1.72622e-44 1.68173e-45 0)
(2.17487e-43 2.19819e-44 0)
(2.6567e-42 2.77814e-43 0)
(3.12099e-41 3.40607e-42 0)
(3.54792e-40 4.01818e-41 0)
(3.84957e-39 4.59399e-40 0)
(4.0372e-38 5.02682e-39 0)
(3.99249e-37 5.35686e-38 0)
(3.8203e-36 5.47767e-37 0)
(3.37085e-35 5.63403e-36 0)
(2.89378e-34 5.76353e-35 0)
(2.17246e-33 6.30835e-34 0)
(1.60186e-32 6.78858e-33 0)
(8.59969e-32 7.08257e-32 0)
(4.60962e-31 5.72936e-31 0)
(7.89935e-36 -3.39866e-35 0)
(-3.85768e-36 -6.43096e-36 0)
(-7.73048e-37 -4.76118e-37 0)
(-8.88146e-38 4.28652e-38 0)
(-1.79183e-39 2.70248e-38 0)
(2.0829e-39 5.63592e-39 0)
(5.39149e-40 9.70251e-40 0)
(1.02759e-40 1.35971e-40 0)
(1.52791e-41 1.75544e-41 0)
(2.0557e-42 2.03722e-42 0)
(2.45924e-43 2.22942e-43 0)
(2.75476e-44 2.27177e-44 0)
(2.86008e-45 2.20626e-45 0)
(2.81981e-46 2.02777e-46 0)
(2.62492e-47 1.80288e-47 0)
(2.34881e-48 1.67973e-48 0)
(2.10899e-49 1.70831e-49 0)
(1.96726e-50 2.16488e-50 0)
(2.13497e-51 2.9221e-51 0)
(2.53936e-52 4.16959e-52 0)
(3.41138e-53 5.53435e-53 0)
(1.87964e-53 6.52797e-54 0)
(2.29735e-52 -7.42155e-54 0)
(3.52117e-51 -1.29485e-52 0)
(5.27541e-50 -1.98874e-51 0)
(7.70881e-49 -2.97678e-50 0)
(1.09617e-47 -4.34543e-49 0)
(1.51762e-46 -6.17245e-48 0)
(2.03882e-45 -8.53532e-47 0)
(2.66165e-44 -1.1452e-45 0)
(3.35925e-43 -1.49281e-44 0)
(4.11174e-42 -1.88079e-43 0)
(4.84061e-41 -2.29611e-42 0)
(5.51683e-40 -2.69058e-41 0)
(6.00194e-39 -3.03194e-40 0)
(6.31572e-38 -3.19801e-39 0)
(6.26753e-37 -3.07095e-38 0)
(6.0255e-36 -2.24322e-37 0)
(5.34164e-35 -1.90262e-37 0)
(4.61855e-34 4.17312e-35 0)
(3.49078e-33 1.15209e-33 0)
(2.60663e-32 2.16337e-32 0)
(1.41475e-31 3.08547e-31 0)
(7.81982e-31 3.35162e-30 0)
(9.14415e-37 -3.68749e-36 0)
(-4.51916e-37 -7.43593e-37 0)
(-9.42693e-38 -8.41061e-38 0)
(-1.42851e-38 -1.67774e-39 0)
(-1.06918e-39 1.92133e-39 0)
(7.76614e-41 4.9416e-40 0)
(3.92871e-41 9.35986e-41 0)
(8.88361e-42 1.38609e-41 0)
(1.42843e-42 1.85888e-42 0)
(2.01868e-43 2.21868e-43 0)
(2.49679e-44 2.48071e-44 0)
(2.86683e-45 2.57188e-45 0)
(3.03344e-46 2.53275e-46 0)
(3.03609e-47 2.35643e-47 0)
(2.8622e-48 2.10893e-48 0)
(2.58374e-49 1.89736e-49 0)
(2.28822e-50 1.77609e-50 0)
(2.04036e-51 1.93567e-51 0)
(1.98795e-52 2.30782e-52 0)
(2.10086e-53 3.01927e-53 0)
(2.50015e-54 3.7364e-54 0)
(7.14053e-55 -1.15652e-54 0)
(6.63115e-54 -2.6226e-53 0)
(1.01385e-52 -4.13356e-52 0)
(1.5198e-51 -6.35126e-51 0)
(2.22226e-50 -9.51762e-50 0)
(3.16217e-49 -1.3911e-48 0)
(4.38125e-48 -1.9786e-47 0)
(5.89071e-47 -2.74004e-46 0)
(7.69732e-46 -3.68213e-45 0)
(9.72428e-45 -4.80836e-44 0)
(1.19161e-43 -6.07006e-43 0)
(1.40453e-42 -7.42952e-42 0)
(1.60303e-41 -8.73774e-41 0)
(1.74662e-40 -9.91682e-40 0)
(1.84137e-39 -1.06381e-38 0)
(1.83085e-38 -1.07195e-37 0)
(1.76465e-37 -9.29236e-37 0)
(1.56837e-36 -5.59606e-36 0)
(1.36112e-35 2.49573e-35 0)
(1.03237e-34 1.5879e-33 0)
(7.75659e-34 3.46901e-32 0)
(4.23202e-33 5.22248e-31 0)
(2.37145e-32 5.91741e-30 0)
(9.16576e-38 -4.18935e-37 0)
(-4.48994e-38 -8.67864e-38 0)
(-9.7673e-39 -1.28888e-38 0)
(-1.71616e-39 -9.32925e-40 0)
(-1.70568e-40 7.74606e-41 0)
(-4.31883e-42 3.65008e-41 0)
(2.22448e-42 8.13483e-42 0)
(6.69552e-43 1.29999e-42 0)
(1.1872e-43 1.82979e-43 0)
(1.7719e-44 2.25726e-44 0)
(2.26969e-45 2.58664e-45 0)
(2.67206e-46 2.73288e-46 0)
(2.88136e-47 2.732e-47 0)
(2.9268e-48 2.57364e-48 0)
(2.79302e-49 2.32266e-49 0)
(2.54445e-50 2.05872e-50 0)
(2.24636e-51 1.83924e-51 0)
(1.96078e-52 1.79747e-52 0)
(1.79136e-53 1.90492e-53 0)
(1.67989e-54 2.24503e-54 0)
(-7.16292e-55 2.31747e-55 0)
(-1.44929e-53 -5.63643e-55 0)
(-2.28232e-52 -9.57743e-54 0)
(-3.50615e-51 -1.50564e-52 0)
(-5.25305e-50 -2.31121e-51 0)
(-7.67618e-49 -3.45994e-50 0)
(-1.09154e-47 -5.05145e-49 0)
(-1.51121e-46 -7.17631e-48 0)
(-2.03022e-45 -9.92491e-47 0)
(-2.65043e-44 -1.33184e-45 0)
(-3.3451e-43 -1.73639e-44 0)
(-4.09442e-42 -2.18806e-43 0)
(-4.82021e-41 -2.67194e-42 0)
(-5.49359e-40 -3.13243e-41 0)
(-5.97661e-39 -3.53394e-40 0)
(-6.28906e-38 -3.73957e-39 0)
(-6.241e-37 -3.62762e-38 0)
(-5.99999e-36 -2.75943e-37 0)
(-5.31894e-35 -5.97418e-37 0)
(-4.59899e-34 4.01152e-35 0)
(-3.47596e-33 1.17512e-33 0)
(-2.59583e-32 2.24273e-32 0)
(-1.40896e-31 3.21844e-31 0)
(-7.79175e-31 3.51285e-30 0)
(9.15404e-39 -4.15608e-38 0)
(-4.4113e-39 -8.93482e-39 0)
(-9.82048e-40 -1.54471e-39 0)
(-1.9333e-40 -1.50818e-40 0)
(-2.24733e-41 -3.21001e-42 0)
(-1.58187e-42 2.10893e-42 0)
(4.58288e-44 6.16724e-43 0)
(4.21932e-44 1.08456e-43 0)
(8.88433e-45 1.61128e-44 0)
(1.43459e-45 2.05827e-45 0)
(1.92239e-46 2.4183e-46 0)
(2.33288e-47 2.60391e-47 0)
(2.57097e-48 2.64192e-48 0)
(2.65494e-49 2.51922e-49 0)
(2.56691e-50 2.29402e-50 0)
(2.36193e-51 2.02575e-51 0)
(2.08915e-52 1.76918e-52 0)
(1.80631e-53 1.62006e-53 0)
(1.58468e-54 1.63961e-54 0)
(1.01774e-55 1.90659e-55 0)
(-6.20383e-55 6.52855e-56 0)
(-1.01843e-53 6.81729e-55 0)
(-1.60024e-52 1.09316e-53 0)
(-2.4558e-51 1.72058e-52 0)
(-3.6754e-50 2.64579e-51 0)
(-5.36442e-49 3.96829e-50 0)
(-7.61848e-48 5.8057e-49 0)
(-1.05327e-46 8.26626e-48 0)
(-1.41288e-45 1.14609e-46 0)
(-1.84135e-44 1.54212e-45 0)
(-2.31973e-43 2.0168e-44 0)
(-2.83336e-42 2.55039e-43 0)
(-3.3281e-41 3.129e-42 0)
(-3.78279e-40 3.69414e-41 0)
(-4.10364e-39 4.22778e-40 0)
(-4.3027e-38 4.63244e-39 0)
(-4.25386e-37 4.94875e-38 0)
(-4.06907e-36 5.08406e-37 0)
(-3.58883e-35 5.27867e-36 0)
(-3.07949e-34 5.49089e-35 0)
(-2.31046e-33 6.14592e-34 0)
(-1.70276e-32 6.77412e-33 0)
(-9.13467e-32 7.18599e-32 0)
(-4.89707e-31 5.89209e-31 0)
(-6.85498e-35 3.26041e-30 0)
(6.06253e-40 -5.24426e-39 0)
(-2.89453e-40 -1.15792e-39 0)
(-6.56592e-41 -2.29236e-40 0)
(-1.3598e-41 -2.70708e-41 0)
(-1.67986e-42 -2.04532e-42 0)
(-1.43546e-43 1.95755e-44 0)
(-2.73436e-45 4.39224e-44 0)
(2.01682e-45 9.66156e-45 0)
(4.9856e-46 1.58639e-45 0)
(8.53787e-47 2.14473e-46 0)
(1.17991e-47 2.61736e-47 0)
(1.46034e-48 2.89585e-48 0)
(1.63177e-49 2.99912e-49 0)
(1.70243e-50 2.90641e-50 0)
(1.6593e-51 2.67751e-51 0)
(1.53661e-52 2.36031e-52 0)
(1.36918e-53 1.90375e-53 0)
(1.33805e-54 1.74196e-54 0)
(1.26e-55 1.3803e-54 0)
(-6.92319e-56 3.76205e-55 0)
(-1.70697e-55 1.31752e-55 0)
(-2.42005e-54 5.61252e-55 0)
(-3.78283e-53 8.73628e-54 0)
(-5.78736e-52 1.37258e-52 0)
(-8.63259e-51 2.10729e-51 0)
(-1.25525e-49 3.15526e-50 0)
(-1.77541e-48 4.60762e-49 0)
(-2.44318e-47 6.54745e-48 0)
(-3.26071e-46 9.05789e-47 0)
(-4.22474e-45 1.21593e-45 0)
(-5.28823e-44 1.58599e-44 0)
(-6.41049e-43 1.9999e-43 0)
(-7.46755e-42 2.44537e-42 0)
(-8.40285e-41 2.87602e-41 0)
(-9.01527e-40 3.27418e-40 0)
(-9.32178e-39 3.55971e-39 0)
(-9.07592e-38 3.74555e-38 0)
(-8.50632e-37 3.72763e-37 0)
(-7.33723e-36 3.61323e-36 0)
(-6.09647e-35 3.27646e-35 0)
(-4.41986e-34 2.95498e-34 0)
(-3.0767e-33 2.42161e-33 0)
(-1.55787e-32 1.97094e-32 0)
(-7.25975e-32 1.21201e-31 0)
(-9.66231e-36 6.31973e-31 0)
(-2.5196e-39 -1.30801e-38 0)
(1.19438e-39 -2.88279e-39 0)
(2.7355e-40 -5.67928e-40 0)
(5.87871e-41 -6.67839e-41 0)
(7.59203e-42 -4.99919e-42 0)
(7.36801e-43 5.65674e-44 0)
(3.4657e-44 1.09349e-43 0)
(-4.85167e-45 2.39034e-44 0)
(-1.61206e-45 3.91352e-45 0)
(-2.98869e-46 5.28064e-46 0)
(-4.28312e-47 6.43539e-47 0)
(-5.41775e-48 7.11212e-48 0)
(-6.1413e-49 7.35931e-49 0)
(-6.4743e-50 7.12484e-50 0)
(-6.35978e-51 6.53056e-51 0)
(-5.91728e-52 5.59667e-52 0)
(-5.1388e-53 2.44161e-53 0)
(-1.55471e-54 3.50568e-54 0)
(6.72823e-56 2.1957e-53 0)
(-1.28541e-54 6.359e-54 0)
(-4.1479e-55 1.72292e-54 0)
(-6.24352e-55 4.51455e-55 0)
(-8.14895e-54 2.16198e-54 0)
(-1.24239e-52 3.30343e-53 0)
(-1.85055e-51 5.05439e-52 0)
(-2.68612e-50 7.54178e-51 0)
(-3.791e-49 1.09706e-49 0)
(-5.20299e-48 1.55232e-48 0)
(-6.92186e-47 2.13721e-47 0)
(-8.93358e-46 2.85392e-46 0)
(-1.11308e-44 3.69998e-45 0)
(-1.34174e-43 4.63466e-44 0)
(-1.55253e-42 5.62281e-43 0)
(-1.73273e-41 6.55624e-42 0)
(-1.84065e-40 7.38583e-41 0)
(-1.88005e-39 7.93578e-40 0)
(-1.80277e-38 8.22233e-39 0)
(-1.65775e-37 8.03211e-38 0)
(-1.39516e-36 7.57202e-37 0)
(-1.12446e-35 6.60635e-36 0)
(-7.82551e-35 5.60042e-35 0)
(-5.20327e-34 4.21054e-34 0)
(-2.46796e-33 3.06393e-33 0)
(-1.0973e-32 1.6567e-32 0)
(-9.25021e-37 7.75235e-32 0)
(-2.84763e-38 -1.2968e-37 0)
(1.36959e-38 -2.79913e-38 0)
(3.06037e-39 -4.95047e-39 0)
(6.1099e-40 -5.03691e-40 0)
(7.24898e-41 -1.75656e-41 0)
(5.5251e-42 5.31787e-42 0)