/*--------------------------------*- C++ -*----------------------------------*\
| =========                 |                                                 |
| \\      /  F ield         | OpenFOAM: The Open Source CFD Toolbox           |
|  \\    /   O peration     | Version:  2.4.0                                 |
|   \\  /    A nd           | Web:      www.OpenFOAM.org                      |
|    \\/     M anipulation  |                                                 |
\*---------------------------------------------------------------------------*/
FoamFile
{
    version     2.0;
    format      ascii;
    class       surfaceScalarField;
    location    "0.65";
    object      phi;
}
// * * * * * * * * * * * * * * * * * * * * * * * * * * * * * * * * * * * * * //

dimensions      [0 3 -1 0 0 0 0];

internalField   nonuniform List<scalar> 
3781
(
3.05842e-39
6.6526e-41
1.67435e-38
4.00019e-40
2.37607e-38
2.95288e-39
5.36407e-37
2.26404e-39
5.16082e-41
-5.68957e-39
-5.36003e-37
-5.6821e-39
-2.03334e-38
2.33706e-39
3.12231e-39
3.41909e-39
3.78404e-38
3.76095e-39
5.63284e-37
5.35626e-39
5.56575e-37
-2.94526e-39
-4.92426e-37
-7.95359e-39
2.02199e-38
2.26403e-39
5.39875e-37
5.21676e-39
2.41635e-38
-2.33797e-39
1.67992e-38
-2.96137e-39
3.07574e-39
-4.00802e-40
3.51723e-40
-6.55782e-41
4.66327e-41
-7.55884e-42
4.98303e-42
-9.11336e-43
5.506e-43
-9.33886e-44
5.37496e-44
-9.52761e-45
5.25217e-45
-8.80221e-46
9.33671e-46
-7.28696e-47
5.28919e-45
7.34172e-47
5.41737e-44
8.86386e-46
5.55339e-43
9.60043e-45
5.03148e-42
9.41886e-44
4.71286e-41
9.19969e-43
3.56145e-40
7.64254e-42
3.11728e-39
6.63944e-41
1.71032e-38
4.0743e-40
2.68776e-38
3.01921e-39
5.53505e-37
2.67136e-39
2.68776e-38
-2.67136e-39
1.71032e-38
-3.01921e-39
3.11728e-39
-4.0743e-40
3.56145e-40
-6.63944e-41
4.71286e-41
-7.64258e-42
5.03133e-42
-9.20349e-43
5.54355e-43
-9.7361e-44
4.96446e-44
-3.15762e-44
-1.47847e-44
-1.48198e-43
-6.54115e-43
8.54673e-40
-7.30174e-41
4.57579e-39
-5.81706e-40
2.91192e-38
-4.09692e-39
4.7476e-38
-3.08251e-39
1.69731e-41
7.85954e-39
-4.73469e-38
7.84991e-39
-2.8144e-38
-3.18046e-39
8.78535e-40
-4.76862e-39
3.29638e-38
-5.27245e-39
7.74717e-38
-7.36666e-39
5.30263e-38
4.08714e-39
-1.27893e-38
1.0942e-38
5.56725e-39
-3.0825e-39
4.84644e-38
-7.17928e-39
2.9248e-38
3.18156e-39
4.59433e-39
4.10783e-39
8.63308e-40
5.83525e-40
1.11958e-40
8.83376e-41
1.52495e-41
9.74761e-42
1.72656e-42
1.09784e-42
1.9494e-43
1.07362e-43
1.96606e-44
1.04484e-44
1.95407e-45
9.31801e-46
3.54713e-46
7.48549e-47
1.9683e-45
-7.53892e-47
1.98215e-44
-9.3797e-46
1.96699e-43
-1.05232e-44
1.74425e-42
-1.08212e-43
1.54244e-41
-1.10735e-42
1.13485e-40
-9.84436e-42
8.76791e-40
-8.93262e-41
4.69065e-39
-5.92153e-40
2.99959e-38
-4.18621e-39
5.21648e-38
-3.67454e-39
2.99959e-38
3.67454e-39
4.69065e-39
4.18621e-39
8.76791e-40
5.92153e-40
1.13485e-40
8.93262e-41
1.54242e-41
9.84403e-42
1.7427e-42
1.10443e-42
1.86434e-43
8.35837e-44
-2.77744e-44
-1.62226e-43
-2.10975e-43
-1.17416e-42
-5.31229e-42
1.89602e-40
-2.29682e-41
7.78814e-40
-1.73315e-40
3.76972e-39
-1.019e-39
5.84468e-39
-7.18838e-40
4.79109e-42
1.94232e-39
-5.8116e-39
1.93906e-39
-3.55088e-39
-7.49952e-40
1.94887e-40
-1.22066e-39
4.39163e-39
-1.3696e-39
9.80865e-39
-1.79711e-39
6.84187e-39
1.01565e-39
-1.07292e-39
2.66115e-39
1.00198e-39
-7.18826e-40
6.06714e-39
-1.73774e-39
3.80267e-39
7.50337e-40
7.83844e-40
1.02268e-39
1.9062e-40
1.73889e-40
2.82295e-41
2.7865e-41
4.27432e-42
3.3045e-42
5.17518e-43
3.85466e-43
6.15874e-44
3.92534e-44
6.4506e-45
3.91446e-45
6.60942e-46
3.58357e-46
1.22767e-46
2.92609e-47
6.65951e-46
-2.94769e-47
6.50617e-45
-3.60815e-46
6.21807e-44
-3.9437e-45
5.23302e-43
-3.95796e-44
4.32934e-42
-3.89017e-43
2.86841e-41
-3.33978e-42
1.94363e-40
-2.82105e-41
8.07675e-40
-1.768e-40
3.96402e-39
-1.04716e-39
6.65178e-39
-8.95587e-40
3.96402e-39
8.95587e-40
8.07675e-40
1.04716e-39
1.94363e-40
1.768e-40
2.86839e-41
2.82103e-41
4.32753e-42
3.33741e-42
5.10493e-43
3.67904e-43
-2.38344e-44
-1.40975e-43
-3.97385e-43
-1.28049e-42
-1.83285e-42
-8.89264e-42
-4.10622e-41
3.02815e-41
-7.17486e-42
9.8071e-41
-4.35486e-41
3.71716e-40
-2.37734e-40
5.49326e-40
-1.63494e-40
9.30179e-43
4.52503e-40
-5.43339e-40
4.5159e-40
-3.36328e-40
-1.7183e-40
3.11616e-41
-2.88279e-40
4.45518e-40
-3.24983e-40
9.52063e-40
-4.16869e-40
6.82643e-40
2.36537e-40
-4.33556e-41
6.15954e-40
1.34247e-40
-1.6344e-40
5.85395e-40
-4.00899e-40
3.77667e-40
1.71944e-40
9.9012e-41
2.3853e-40
3.03387e-41
4.33536e-41
5.04374e-42
7.46897e-42
8.24452e-43
9.34469e-43
1.05407e-43
1.14208e-43
1.30184e-44
1.20516e-44
1.40563e-45
1.23702e-45
1.47271e-46
1.15856e-46
2.78783e-47
9.62209e-48
1.48424e-46
-9.69518e-48
1.41823e-45
-1.16677e-46
1.31503e-44
-1.24664e-45
1.06664e-43
-1.21569e-44
8.36037e-43
-1.15328e-43
5.13584e-42
-9.45263e-43
3.10549e-41
-7.57089e-42
1.03205e-40
-4.41714e-41
4.0275e-40
-2.45041e-40
6.52411e-40
-2.07599e-40
4.0275e-40
2.07599e-40
1.03205e-40
2.45041e-40
3.10547e-41
4.41712e-41
5.13419e-42
7.56934e-42
8.22062e-43
9.29631e-43
6.75842e-45
-2.54879e-44
-6.67035e-43
-1.20957e-42
-3.24324e-42
-8.84271e-42
-1.49709e-41
-6.2538e-41
-2.96782e-40
4.48309e-42
-9.45777e-42
1.10624e-41
-1.09133e-41
2.76792e-41
-4.29354e-41
3.70991e-41
-2.78179e-41
1.70122e-43
7.77999e-41
-3.60754e-41
7.76812e-41
-2.22514e-41
-2.90484e-41
4.6993e-42
-5.03035e-41
3.50855e-41
-5.6984e-41
6.93934e-41
-7.14138e-41
5.34214e-41
4.07123e-41
7.06989e-42
1.05295e-40
1.65077e-41
-2.74159e-41
4.25886e-41
-6.83147e-41
2.86374e-41
2.90708e-41
1.11473e-41
4.11169e-41
4.55303e-42
7.96035e-42
8.34976e-43
1.44472e-42
1.46561e-43
1.89214e-43
1.95824e-44
2.39349e-44
2.50084e-45
2.6015e-45
2.76843e-46
2.72949e-46
2.95829e-47
2.60573e-47
5.68755e-48
2.19328e-48
2.98206e-47
-2.21035e-48
2.7941e-46
-2.62469e-47
2.52728e-45
-2.75141e-46
1.98293e-44
-2.62514e-45
1.48779e-43
-2.41814e-44
8.51999e-43
-1.91538e-43
4.67946e-42
-1.466e-42
1.18307e-41
-8.12509e-42
3.23161e-41
-4.23672e-41
4.88882e-41
-3.55384e-41
3.23161e-41
3.55384e-41
1.18306e-41
4.23671e-41
4.67814e-42
8.1242e-42
8.40129e-43
1.4566e-42
4.69286e-44
9.60088e-44
-7.18437e-43
-8.48503e-43
-5.11245e-42
-7.71121e-42
-2.48932e-41
-5.71196e-41
-1.17294e-40
-4.15642e-40
-2.04574e-39
-6.5019e-44
-6.00853e-41
1.81711e-42
-2.27121e-41
1.70895e-42
-2.13036e-41
1.46256e-42
-7.23037e-42
5.76278e-44
1.21001e-41
-1.14964e-42
1.25388e-41
-6.47755e-43
-4.68188e-42
6.43246e-43
-8.23892e-42
2.07462e-42
-9.35559e-42
3.33573e-42
-1.1571e-41
3.19545e-42
6.60554e-42
2.00407e-42
1.70315e-41
1.91653e-42
-4.38233e-42
2.06657e-42
-1.1022e-41
1.54e-42
4.67619e-42
1.17773e-42
6.67977e-42
6.2048e-43
1.34292e-42
1.22791e-43
2.5528e-43
2.26996e-44
3.46376e-44
3.14135e-45
4.51647e-45
4.11684e-46
5.02748e-46
4.65326e-47
5.37613e-47
5.05311e-48
5.21267e-48
9.84639e-49
4.43778e-49
5.09467e-48
-4.473e-49
4.69764e-47
-5.25143e-48
4.16192e-46
-5.42048e-47
3.18278e-45
-5.07471e-46
2.30638e-44
-4.56493e-45
1.2551e-43
-3.50856e-44
6.39945e-43
-2.59283e-43
1.27699e-42
-1.37294e-42
2.03138e-42
-6.8994e-42
2.57815e-42
-5.75477e-42
2.0313e-42
5.75473e-42
1.27613e-42
6.89899e-42
6.3132e-43
1.36827e-42
4.70543e-44
2.09526e-43
-6.59709e-43
-4.77294e-43
-5.02976e-42
-4.75477e-42
-3.55883e-41
-4.30077e-41
-1.77605e-40
-3.27993e-40
-8.56296e-40
-2.47361e-39
-1.28033e-38
-4.16339e-42
-4.00268e-40
5.66861e-42
-1.44623e-40
2.51505e-42
-1.02319e-40
1.10237e-42
-1.98586e-41
2.45168e-43
-1.78843e-42
1.87523e-43
1.33008e-42
1.10406e-43
-7.32052e-43
8.68349e-44
-1.20536e-42
5.9111e-44
-1.36482e-42
-3.97251e-44
-1.66608e-42
1.02597e-43
9.52552e-43
3.44364e-43
2.44833e-42
2.27388e-43
-6.22782e-43
-1.84104e-44
-1.58078e-42
1.68441e-44
6.68487e-43
1.28149e-43
9.64423e-43
8.26763e-44
2.00641e-43
1.72372e-44
3.95355e-44
3.31237e-45
5.52649e-45
4.70612e-46
7.38178e-46
6.29634e-47
8.38462e-47
7.23496e-48
9.10749e-48
7.96118e-49
8.95017e-49
1.56818e-49
7.69363e-50
8.02789e-49
-7.75577e-50
7.30558e-48
-9.01801e-49
6.36727e-47
-9.18437e-48
4.77043e-46
-8.46562e-47
3.36795e-45
-7.46375e-46
1.76433e-44
-5.60106e-45
8.55035e-44
-4.0188e-44
1.41947e-43
-2.05411e-43
8.13335e-44
-9.98265e-43
2.03545e-44
-8.28122e-43
8.08535e-44
8.27952e-43
1.36814e-43
9.96369e-43
3.31819e-44
1.83445e-43
-4.64929e-43
-1.97079e-43
-4.27304e-42
-2.4818e-42
-3.21989e-41
-2.36082e-41
-2.33899e-40
-2.20016e-40
-1.20509e-39
-1.74725e-39
-6.00308e-39
-1.3901e-38
-7.71473e-38
-1.5559e-41
-2.56862e-39
4.85982e-41
-8.89175e-40
1.95033e-41
-6.25902e-40
8.84537e-42
-1.15725e-40
1.70123e-42
-2.07341e-41
3.48865e-43
-2.5182e-42
6.84002e-44
-4.46139e-43
1.65609e-44
-2.04756e-43
-5.77748e-45
-1.9315e-43
-3.53388e-44
-2.2923e-43
-7.33877e-45
1.30885e-43
4.79859e-44
3.3585e-43
2.68374e-44
-8.47083e-44
-2.06187e-44
-2.16438e-43
-9.77635e-45
9.13653e-44
1.42362e-44
1.32687e-43
1.04368e-44
2.8289e-44
2.25755e-45
5.73914e-45
4.45989e-46
8.21e-46
6.47068e-47
1.11838e-46
8.79985e-48
1.29097e-47
1.02524e-48
1.42046e-48
1.14062e-49
1.41123e-49
2.26787e-50
1.2228e-50
1.15033e-49
-1.23282e-50
1.03545e-48
-1.4221e-49
8.90134e-48
-1.43268e-48
6.56168e-47
-1.30373e-47
4.53741e-46
-1.13115e-46
2.31322e-45
-8.32463e-46
1.08159e-44
-5.83781e-45
1.60287e-44
-2.89955e-44
-1.74538e-45
-1.37582e-43
-1.79337e-44
-1.13734e-43
-4.21999e-45
1.13134e-43
-1.07069e-44
1.30857e-43
-2.65396e-43
-4.98455e-44
-2.58646e-42
-8.58061e-43
-2.34146e-41
-9.23544e-42
-1.80886e-40
-9.00895e-41
-1.35501e-39
-8.73893e-40
-7.26526e-39
-7.38183e-39
-3.74512e-38
-6.33331e-38
-3.92041e-37
9.78688e-41
-1.45923e-38
4.41844e-40
-5.18941e-39
1.52443e-40
-3.77282e-39
6.25937e-41
-6.66982e-40
1.1468e-41
-1.16228e-40
2.04547e-42
-1.47536e-41
2.78708e-43
-1.85431e-42
3.68306e-44
-2.1899e-43
2.3742e-45
-4.49842e-44
-5.6357e-45
-3.12527e-44
-2.01341e-45
1.65979e-44
6.10637e-45
4.2939e-44
3.1682e-45
-1.07495e-44
-3.55257e-45
-2.76357e-44
-1.87665e-45
1.16436e-44
1.62136e-45
1.70185e-44
1.27579e-45
3.70839e-45
2.82882e-46
7.6966e-46
5.70368e-47
1.12242e-46
8.40985e-48
1.55323e-47
1.15871e-48
1.81743e-48
1.36508e-49
2.02114e-49
1.5324e-50
2.02684e-50
3.07016e-51
1.76806e-51
1.54561e-50
-1.78272e-51
1.37887e-49
-2.04267e-50
1.17232e-48
-2.03881e-49
8.5307e-48
-1.83576e-48
5.80533e-47
-1.5714e-47
2.90066e-46
-1.13857e-46
1.32364e-45
-7.83383e-46
1.83832e-45
-3.8054e-45
-9.83813e-46
-1.7682e-44
-4.32285e-45
-1.46806e-44
-1.25452e-44
1.28825e-44
-1.24764e-43
-2.74486e-45
-1.33001e-42
-2.39607e-43
-1.2733e-41
-2.71621e-42
-1.18339e-40
-2.99037e-41
-9.43567e-40
-3.03268e-40
-7.37152e-39
-3.14344e-39
-4.14778e-38
-2.91926e-38
-2.26728e-37
-2.83655e-37
-2.0389e-36
2.94377e-39
-8.20366e-38
4.15887e-39
-2.4983e-38
1.14793e-39
-1.74512e-38
3.95212e-40
-2.95012e-39
6.79959e-41
-4.87857e-40
1.15529e-41
-5.97662e-41
1.51123e-42
-7.21366e-42
1.90853e-43
-7.58225e-43
2.06907e-44
-8.05679e-44
1.41511e-45
-1.12538e-44
-8.32132e-47
1.65964e-45
7.38668e-46
5.85988e-45
3.63919e-46
-1.47576e-45
-4.62089e-46
-3.80124e-45
-2.5164e-46
1.59922e-45
1.81844e-46
2.34872e-45
1.48346e-46
5.20216e-46
3.35226e-47
1.09839e-46
6.86498e-48
1.62527e-47
1.02593e-48
2.27625e-48
1.42873e-49
2.69128e-49
1.69935e-50
3.01756e-50
1.92225e-51
3.04796e-51
3.87689e-52
2.67257e-52
1.93887e-51
-2.69496e-52
1.71652e-50
-3.07201e-51
1.44542e-49
-3.04431e-50
1.0404e-48
-2.71888e-49
6.98193e-48
-2.30345e-48
3.42806e-47
-1.64931e-47
1.52482e-46
-1.11869e-46
1.86174e-46
-5.34548e-46
-4.20822e-46
-2.44761e-45
-3.87011e-45
-2.08338e-45
-4.05031e-44
9.79274e-46
-4.45187e-43
-1.03331e-44
-4.77075e-42
-1.56292e-43
-4.66939e-41
-1.83675e-42
-4.46646e-40
-2.23145e-41
-3.69726e-39
-2.73033e-40
-3.01817e-38
-3.76916e-39
-1.80197e-37
-5.14325e-38
-1.03997e-36
-6.83854e-37
-6.91543e-36
7.0631e-38
-5.54318e-37
6.44666e-38
-1.92937e-37
1.49027e-38
-1.44523e-37
4.31166e-39
-2.15379e-38
6.80636e-40
-3.39088e-39
1.09398e-40
-3.92723e-40
1.37214e-41
-4.59805e-41
1.68378e-42
-4.66593e-42
1.80244e-43
-4.67678e-43
1.85664e-44
-4.312e-44
1.72967e-45
-3.6634e-45
2.48031e-46
1.0201e-46
5.68246e-47
-1.30692e-46
-5.6845e-47
-2.73387e-46
-3.1898e-47
1.13972e-46
2.13578e-47
1.68246e-46
1.77612e-47
3.78886e-47
4.06558e-48
8.1861e-48
8.41507e-49
1.23285e-48
1.26943e-49
1.75635e-49
1.78081e-50
2.10609e-50
2.13196e-51
2.39121e-51
2.42368e-52
2.44142e-52
4.90494e-53
2.15913e-53
2.43745e-52
-2.17656e-53
2.14179e-51
-2.4595e-52
1.7831e-50
-2.41032e-51
1.25898e-49
-2.12415e-50
8.13624e-49
-1.77158e-49
3.55108e-48
-1.24208e-48
9.79827e-48
-8.20191e-48
-9.12812e-47
-3.69751e-47
-1.52097e-45
-1.48025e-46
-1.8593e-44
2.15795e-46
-2.22447e-43
4.75081e-45
-2.50311e-42
5.61313e-44
-2.75341e-41
6.51548e-43
-2.7703e-40
6.82846e-42
-2.75932e-39
6.16269e-41
-2.38e-38
2.71301e-40
-2.08051e-37
-4.92751e-39
-1.32629e-36
-1.95926e-37
-8.89121e-36
-3.85286e-36
-5.46193e-35
1.29553e-36
-7.56674e-37
9.49344e-37
-6.31655e-37
1.61935e-37
-1.62296e-37
3.34421e-38
-2.06733e-38
4.59813e-39
-3.00738e-39
6.60461e-40
-3.38206e-40
7.77357e-41
-3.91436e-41
9.07333e-42
-3.94728e-42
9.39542e-43
-3.94426e-43
9.47264e-44
-3.60724e-44
8.79906e-45
-3.20591e-45
7.97404e-46
-2.37833e-46
6.9815e-47
-2.9671e-47
1.61723e-48
-2.19082e-47
-1.71738e-48
8.36148e-48
1.4261e-48
1.2555e-47
1.17313e-48
2.85917e-48
2.71695e-49
6.22341e-49
5.69956e-50
9.44545e-50
8.69754e-51
1.35207e-50
1.23304e-51
1.62912e-51
1.48968e-52
1.8549e-52
1.70725e-53
1.89901e-53
3.50141e-54
1.682e-54
1.75491e-53
-1.68886e-54
1.55752e-52
-1.9023e-53
1.32954e-51
-1.8519e-52
1.00587e-50
-1.61442e-51
7.61199e-50
-1.31884e-50
5.34854e-49
-8.83319e-50
4.73468e-48
-5.22614e-49
4.80075e-47
-1.35073e-48
5.91352e-46
8.89205e-48
7.20924e-45
2.80868e-46
8.48696e-44
3.75959e-45
9.39979e-43
4.56983e-44
1.00745e-41
5.34802e-43
9.9434e-41
5.6663e-42
9.54612e-40
5.26511e-41
8.04485e-39
2.74956e-40
6.64266e-38
-2.91151e-39
4.13361e-37
-1.40438e-37
2.4832e-36
-2.87295e-36
-4.20898e-35
3.20446e-35
-1.61946e-35
1.62889e-36
-8.17494e-37
1.24672e-36
5.26735e-38
2.45406e-37
1.44111e-38
3.06375e-38
2.75458e-39
4.26749e-39
3.33159e-40
4.80235e-40
3.95819e-41
5.48747e-41
4.01856e-42
5.53722e-42
4.019e-43
5.49788e-43
3.67066e-44
5.02214e-44
3.27379e-45
4.4656e-45
2.75757e-46
3.73469e-46
2.1711e-47
3.00131e-47
3.53644e-49
2.19287e-48
7.01375e-49
2.6885e-49
8.59534e-49
9.16939e-50
1.96407e-49
1.93726e-50
4.3142e-50
3.96372e-51
6.61016e-51
6.03373e-52
9.54158e-52
8.56018e-53
1.15844e-52
1.03702e-53
1.32724e-53
1.19813e-54
1.36641e-54
3.66177e-55
1.21019e-55
3.23195e-54
-1.30929e-55
4.31362e-53
-1.51974e-54
5.98033e-52
-1.57467e-53
8.37668e-51
-1.54916e-52
1.18614e-49
-1.5587e-51
1.6529e-48
-1.57086e-50
2.26803e-47
-1.76767e-49
3.00352e-46
-2.09368e-48
3.86595e-45
-2.70647e-47
4.74419e-44
-3.48039e-46
5.64151e-43
-4.46581e-45
6.31323e-42
-5.43704e-44
6.86468e-41
-6.34112e-43
6.86907e-40
-6.62188e-42
6.73692e-39
-5.85239e-41
5.79016e-38
-2.08039e-40
4.9577e-37
6.34842e-39
3.189e-36
2.26041e-37
2.08057e-35
4.39388e-36
6.25282e-35
1.41176e-36
-5.63161e-37
8.08939e-37
-4.0134e-37
1.41652e-37
9.62322e-38
2.99459e-38
1.85247e-38
4.19934e-39
3.23121e-39
6.12556e-40
3.8499e-40
7.29076e-41
4.55698e-41
8.58408e-42
4.63968e-42
8.94817e-43
4.65348e-43
9.07091e-44
4.26542e-44
8.46442e-45
3.81367e-45
7.64161e-46
3.19858e-46
6.48676e-47
2.6e-47
5.30552e-48
1.92386e-48
4.0656e-49
1.90257e-49
3.73673e-50
6.85987e-50
7.30645e-51
1.41508e-50
1.34556e-51
3.01354e-51
2.62907e-52
4.60061e-52
3.96814e-53
6.63849e-53
5.62401e-54
8.07769e-54
6.83049e-55
9.26909e-55
7.91059e-56
9.5588e-56
2.36461e-56
8.07559e-57
2.01777e-55
-1.61437e-56
2.62761e-54
-2.24551e-55
3.54737e-53
-3.05426e-54
4.84183e-52
-4.22217e-53
6.67643e-51
-6.00314e-52
9.07921e-50
-8.55539e-51
1.21153e-48
-1.22391e-49
1.5636e-47
-1.71366e-48
1.94548e-46
-2.35632e-47
2.31559e-45
-3.11773e-46
2.63163e-44
-4.00531e-45
2.83395e-43
-4.86989e-44
2.88666e-42
-5.65511e-43
2.74608e-41
-5.83335e-42
2.42506e-40
-4.91945e-41
1.94294e-39
-9.87075e-41
1.35938e-38
7.7522e-39
7.94956e-38
2.42863e-37
2.77828e-37
4.5703e-36
6.33389e-35
1.39861e-37
-4.4002e-37
-1.83801e-38
-5.60198e-38
2.6069e-39
9.53571e-39
2.16907e-39
2.40406e-39
4.33213e-40
4.56103e-40
7.95003e-41
5.83647e-41
1.06889e-41
7.18558e-42
1.37552e-42
7.60071e-43
1.52003e-43
7.81722e-44
1.61187e-44
7.3414e-45
1.55442e-45
6.6803e-46
1.44061e-46
5.69626e-47
1.24788e-47
4.69637e-48
1.03999e-48
3.62523e-49
8.18357e-50
3.0422e-50
6.67209e-51
5.70359e-51
7.7747e-52
1.00227e-51
1.07709e-52
2.01063e-52
1.82439e-53
3.03385e-53
2.63378e-54
4.36577e-54
3.6629e-55
5.32212e-55
4.405e-56
6.12054e-56
2.12681e-57
6.35621e-57
-4.92233e-56
1.02355e-57
-8.29936e-55
7.43358e-57
-1.34431e-53
1.2957e-55
-2.11873e-52
2.19105e-54
-3.23434e-51
3.57422e-53
-4.80143e-50
5.64726e-52
-6.87809e-49
8.61823e-51
-9.57415e-48
1.27661e-49
-1.27868e-46
1.82206e-48
-1.65893e-45
2.52565e-47
-2.04707e-44
3.35475e-46
-2.45698e-43
4.33054e-45
-2.76569e-42
5.31149e-44
-3.04363e-41
6.36036e-43
-3.06352e-40
7.17921e-42
-3.05372e-39
8.10479e-41
-2.63547e-38
8.74104e-40
-2.30667e-37
1.01058e-38
-1.47158e-36
1.13156e-37
-9.88495e-36
1.31334e-36
1.18848e-35
1.0711e-38
-7.79525e-38
-6.25787e-39
-1.01562e-38
-6.15484e-40
5.44451e-40
8.68986e-41
2.50976e-40
3.16181e-41
5.86646e-41
7.21813e-42
8.29484e-42
1.07487e-42
1.10486e-42
1.47372e-43
1.23254e-43
1.70263e-44
1.32235e-44
1.8632e-45
1.28114e-45
1.84294e-46
1.19519e-46
1.74117e-47
1.039e-47
1.53321e-48
8.7059e-49
1.29528e-49
6.87728e-50
1.03432e-50
5.45758e-51
8.23091e-52
6.19542e-52
7.80925e-53
8.19003e-53
8.74738e-54
1.40181e-53
1.26034e-54
2.01592e-54
1.70661e-55
2.84061e-55
2.30395e-56
3.44013e-56
2.79714e-57
3.94681e-57
1.11624e-57
4.58717e-58
1.36413e-56
9.46772e-58
2.24394e-55
1.58351e-56
3.5963e-54
2.69187e-55
5.60997e-53
4.46308e-54
8.47746e-52
7.19041e-53
1.24439e-50
1.12827e-51
1.7617e-49
1.71502e-50
2.41791e-48
2.53594e-49
3.18112e-47
3.61686e-48
4.05047e-46
5.01335e-47
4.89921e-45
6.6615e-46
5.72958e-44
8.6029e-45
6.27368e-43
1.0558e-43
6.64897e-42
1.26439e-42
6.42984e-41
1.4258e-41
6.04842e-40
1.60219e-40
4.91194e-39
1.70666e-39
3.90815e-38
1.92784e-38
2.2668e-37
2.08195e-37
1.26388e-36
2.34338e-36
2.05142e-35
1.15655e-39
-7.99733e-39
-1.14483e-39
-1.17946e-39
-1.53631e-40
-6.74897e-42
-7.59457e-42
1.80852e-41
1.42414e-42
5.34166e-42
5.71882e-43
8.31531e-43
1.00048e-43
1.17956e-43
1.50566e-44
1.37658e-44
1.84046e-45
1.5258e-45
2.0981e-46
1.51756e-46
2.1377e-47
1.44426e-47
2.06677e-48
1.27694e-48
1.85299e-49
1.08453e-49
1.58869e-50
8.69201e-51
1.28555e-51
6.84071e-52
1.01626e-52
6.37477e-53
8.58232e-54
6.84449e-54
8.04109e-55
9.80037e-55
9.45835e-56
1.31369e-55
1.14802e-56
1.78933e-56
1.48112e-57
2.1406e-57
5.77236e-58
2.4452e-58
7.12744e-57
3.45672e-59
1.20783e-55
1.70158e-58
2.00154e-54
2.9324e-57
3.22434e-53
4.99535e-56
5.05848e-52
8.30305e-55
7.69063e-51
1.34144e-53
1.13698e-49
2.11193e-52
1.62217e-48
3.22166e-51
2.24752e-47
4.78405e-50
2.98754e-46
6.85464e-49
3.85334e-45
9.55999e-48
4.72692e-44
1.28136e-46
5.62992e-43
1.68457e-45
6.28921e-42
2.15742e-44
6.84854e-41
2.88596e-43
6.82366e-40
4.22808e-42
6.69886e-39
7.57359e-41
5.70123e-38
1.5447e-39
4.87331e-37
3.26039e-38
3.04861e-36
6.22836e-37
1.95947e-35
1.00651e-35
1.26088e-34
1.05097e-40
-9.95494e-40
-1.1823e-40
-1.50971e-40
-1.79469e-41
-1.00505e-41
-1.67146e-42
6.42595e-43
-2.69722e-45
4.17732e-43
3.6271e-44
7.61379e-44
7.72401e-45
1.18478e-44
1.27346e-45
1.46152e-45
1.6407e-46
1.68725e-46
1.93853e-47
1.72818e-47
2.02827e-48
1.68281e-48
2.00066e-49
1.51468e-49
1.82314e-50
1.30511e-50
1.58357e-51
1.05959e-51
1.29625e-52
8.34865e-53
1.02728e-53
6.99879e-54
8.28163e-55
6.38775e-55
7.05484e-56
7.42787e-56
7.12607e-57
8.89072e-57
7.75574e-58
1.1346e-57
1.27749e-58
1.31747e-58
6.6294e-58
1.08296e-59
1.13925e-56
-7.14066e-59
1.9373e-55
-1.30118e-57
3.21369e-54
-2.26809e-56
5.18252e-53
-3.85154e-55
8.14026e-52
-6.37975e-54
1.23913e-50
-1.02707e-52
1.83454e-49
-1.6106e-51
2.62124e-48
-2.44679e-50
3.63807e-47
-3.61584e-49
4.84456e-46
-5.15363e-48
6.26234e-45
-7.13624e-47
7.69904e-44
-9.46416e-46
9.19649e-43
-1.21614e-44
1.03025e-41
-1.47074e-43
1.1264e-40
-1.68402e-42
1.12652e-39
-1.64176e-41
1.11264e-38
-1.09194e-40
9.5194e-38
8.23685e-40
8.22235e-37
5.036e-38
5.18649e-36
1.28424e-36
3.41326e-35
2.29549e-35
3.09272e-34
1.09587e-41
-9.50571e-41
-1.25267e-41
-1.53155e-41
-2.01683e-42
-1.56191e-42
-2.55721e-43
-3.81223e-44
-1.49556e-44
2.5448e-44
1.36351e-45
5.77904e-45
5.08081e-46
9.92658e-46
9.84171e-47
1.29384e-46
1.36733e-47
1.55072e-47
1.69464e-48
1.63257e-48
1.83121e-49
1.62292e-49
1.84988e-50
1.48534e-50
1.7166e-51
1.29682e-51
1.51246e-52
1.06517e-52
1.25264e-53
8.43999e-54
9.98386e-55
6.78192e-55
7.86455e-56
5.68198e-56
6.31481e-57
5.6667e-57
5.64804e-58
6.05116e-58
5.46172e-59
7.12891e-59
6.9198e-60
7.75168e-60
1.98869e-59
-3.26712e-60
3.36471e-58
-7.56435e-59
5.7237e-57
-1.3514e-57
9.49942e-56
-2.35541e-56
1.5327e-54
-3.99985e-55
2.40883e-53
-6.62547e-54
3.66899e-52
-1.06663e-52
5.43576e-51
-1.67264e-51
7.77238e-50
-2.54105e-50
1.07967e-48
-3.75513e-49
1.43898e-47
-5.35216e-48
1.86212e-46
-7.41116e-47
2.2918e-45
-9.82888e-46
2.74142e-44
-1.26309e-44
3.07534e-43
-1.52789e-43
3.36886e-42
-1.75091e-42
3.37526e-41
-1.71217e-41
3.34309e-40
-1.15649e-40
2.86725e-39
7.93322e-40
2.48816e-38
5.08132e-38
1.57522e-37
1.30361e-36
1.04706e-36
2.33423e-35
3.14879e-34
9.69927e-43
-9.6698e-42
-1.09819e-42
-1.59453e-42
-1.86637e-43
-2.14457e-43
-2.74492e-44
-1.42689e-44
-2.23052e-45
7.9891e-46
-2.97154e-47
3.68341e-46
2.64721e-47
7.55659e-47
6.59553e-48
1.06516e-47
1.00337e-48
1.34119e-48
1.30909e-49
1.45905e-49
1.46232e-50
1.48591e-50
1.51248e-51
1.38506e-51
1.42886e-52
1.22672e-52
1.27646e-53
1.0195e-53
1.06928e-54
8.13795e-55
8.58432e-56
6.40711e-56
6.70785e-57
5.0988e-57
5.22966e-58
4.51908e-58
4.32814e-59
4.31556e-59
1.84088e-60
4.62144e-60
-3.60069e-59
5.05917e-61
-6.5002e-58
3.0995e-61
-1.13451e-56
4.73573e-60
-1.92946e-55
8.49198e-59
-3.20073e-54
1.48989e-57
-5.16168e-53
2.54763e-56
-8.10762e-52
4.25273e-55
-1.23418e-50
6.90189e-54
-1.82723e-49
1.09229e-52
-2.61083e-48
1.67528e-51
-3.62367e-47
2.50352e-50
-4.82544e-46
3.61109e-49
-6.23771e-45
5.07952e-48
-7.66884e-44
6.88327e-47
-9.16057e-43
9.23181e-46
-1.02623e-41
1.23196e-44
-1.12204e-40
1.80202e-43
-1.12217e-39
3.07347e-42
-1.10839e-38
6.46487e-41
-9.48316e-38
1.47449e-39
-8.19199e-37
3.27911e-38
-5.16765e-36
6.42261e-37
-3.40225e-35
1.04818e-35
1.32208e-34
8.81474e-44
-8.60671e-43
-9.75408e-44
-1.47263e-43
-1.71437e-44
-2.30992e-44
-2.82881e-45
-2.01002e-45
-2.74386e-46
-5.36396e-47
-1.61323e-47
1.76225e-47
5.92767e-49
4.9997e-48
3.71544e-49
7.81845e-49
6.66752e-50
1.04272e-49
9.39871e-51
1.1762e-50
1.09741e-51
1.22887e-51
1.16926e-52
1.16768e-52
1.12821e-53
1.04954e-53
1.02399e-54
8.82815e-55
8.68462e-56
7.10701e-56
7.03243e-57
5.55596e-57
5.48672e-58
4.27839e-58
4.21093e-59
3.54124e-59
3.24517e-60
5.9685e-60
-1.06628e-60
9.96292e-61
-2.42991e-59
3.19243e-61
-4.34227e-58
2.34392e-60
-7.57173e-57
4.23181e-59
-1.28654e-55
7.55226e-58
-2.13202e-54
1.31661e-56
-3.43455e-53
2.2364e-55
-5.38821e-52
3.70555e-54
-8.19179e-51
5.96753e-53
-1.21104e-49
9.36165e-52
-1.72776e-48
1.42281e-50
-2.39367e-47
2.10373e-49
-3.18158e-46
3.00032e-48
-4.10323e-45
4.15871e-47
-5.03286e-44
5.52599e-46
-5.99344e-43
7.13693e-45
-6.69401e-42
8.76111e-44
-7.28775e-41
1.04999e-42
-7.25903e-40
1.18669e-41
-7.12403e-39
1.34113e-40
-6.06023e-38
1.4482e-39
-5.17842e-37
1.67465e-38
-3.23762e-36
1.87374e-37
-2.08137e-35
2.17196e-36
-1.80425e-35
1.96111e-35
1.29331e-34
5.39786e-45
-3.02488e-43
-5.9033e-45
-5.27689e-44
-1.06493e-45
-9.31065e-45
-1.8521e-46
-9.41629e-46
-1.92902e-47
-6.2425e-47
-1.4312e-48
4.5447e-49
-2.18397e-50
1.04311e-48
1.57019e-50
1.99205e-49
3.35177e-51
2.90316e-50
5.04018e-52
3.4384e-51
6.08738e-53
3.71036e-52
6.62672e-54
3.60641e-53
6.49073e-55
3.29683e-54
5.95625e-56
2.80931e-55
5.09525e-57
2.2748e-56
4.15365e-58
1.73315e-57
3.29282e-59
6.96331e-59
2.874e-60
8.96953e-60
6.5583e-62
5.86871e-59
-4.44257e-61
1.38978e-59
-4.88885e-60
3.39057e-60
-8.62429e-59
1.71544e-60
-1.49919e-57
2.173e-59
-2.53918e-56
3.85985e-58
-4.1925e-55
6.72021e-57
-6.72731e-54
1.13995e-55
-1.05059e-52
1.88593e-54
-1.58943e-51
3.03227e-53
-2.33618e-50
4.74817e-52
-3.31239e-49
7.2025e-51
-4.55476e-48
1.06253e-49
-6.00583e-47
1.51179e-48
-7.66853e-46
2.08946e-47
-9.30671e-45
2.768e-46
-1.09304e-43
3.56051e-45
-1.20312e-42
4.34933e-44
-1.28354e-41
5.16817e-43
-1.25184e-40
5.75091e-42
-1.18999e-39
6.27937e-41
-9.80155e-39
6.29321e-40
-7.92032e-38
6.35262e-39
-4.69498e-37
5.66377e-38
-2.65675e-36
5.21361e-37
-2.25807e-36
3.52089e-36
2.20051e-35
-2.14409e-44
-2.61364e-42
2.32753e-44
-4.47994e-43
4.24074e-45
-7.11264e-44
7.57322e-46
-6.3154e-45
8.16571e-47
-2.07295e-46
6.69062e-48
4.69791e-47
2.31399e-49
1.42693e-47
-4.31327e-50
2.2665e-48
-1.11282e-50
3.04587e-49
-1.76808e-51
3.45018e-50
-2.19074e-52
3.61489e-51
-2.42208e-53
3.44157e-52
-2.39672e-54
3.098e-53
-2.21571e-55
2.60799e-54
-1.90576e-56
2.08413e-55
-1.55474e-57
1.5432e-56
-1.11686e-58
-3.79723e-59
-1.03557e-60
7.10254e-59
-2.99556e-60
1.14441e-57
-4.09105e-60
2.71048e-58
-1.91047e-60
6.50153e-59
-1.68082e-59
1.05753e-59
-2.88335e-58
5.88961e-60
-4.88052e-57
7.73517e-59
-8.05128e-56
1.33995e-57
-1.29028e-54
2.26647e-56
-2.01146e-53
3.73728e-55
-3.03619e-52
5.98738e-54
-4.44943e-51
9.3358e-53
-6.28542e-50
1.40965e-51
-8.60261e-49
2.0681e-50
-1.12782e-47
2.92507e-49
-1.42975e-46
4.01332e-48
-1.71979e-45
5.27491e-47
-1.99749e-44
6.71777e-46
-2.16779e-43
8.11777e-45
-2.27212e-42
9.50696e-44
-2.16454e-41
1.0406e-42
-1.99888e-40
1.10847e-41
-1.58113e-39
1.07583e-40
-1.22163e-38
1.03004e-39
-6.77895e-38
8.52253e-39
-3.66333e-37
7.07637e-38
-3.094e-37
4.20509e-37
2.37042e-36
-2.714e-43
-2.98961e-41
2.99811e-43
-4.95091e-42
5.28731e-44
-6.8077e-43
8.79731e-45
-4.77528e-44
8.65081e-46
1.76129e-45
5.37243e-47
1.03933e-45
-1.2299e-48
2.20358e-46
-1.06315e-48
3.14228e-47
-1.95881e-49
3.98313e-48
-2.79076e-50
4.35057e-49
-3.2764e-51
4.44355e-50
-3.50332e-52
4.15056e-51
-3.38842e-53
3.68211e-52
-3.08103e-54
3.06241e-53
-2.61635e-55
2.41376e-54
-2.11198e-56
1.73551e-55
-1.44854e-57
-9.73359e-57
3.85905e-59
7.18563e-58
-5.5868e-59
2.18312e-56
-8.0715e-59
5.15604e-57
-1.96772e-59
1.23667e-57
-6.68335e-60
1.96325e-58
-3.96794e-59
3.02661e-59
-6.58686e-58
1.79544e-59
-1.08405e-56
2.48442e-58
-1.73293e-55
4.19268e-57
-2.69338e-54
6.90669e-56
-4.0518e-53
1.10504e-54
-5.91352e-52
1.71987e-53
-8.3158e-51
2.59095e-52
-1.13183e-49
3.78983e-51
-1.47474e-48
5.34075e-50
-1.85522e-47
7.29383e-49
-2.21262e-46
9.53312e-48
-2.54197e-45
1.20549e-46
-2.72519e-44
1.44415e-45
-2.81046e-43
1.67262e-44
-2.62845e-42
1.80506e-43
-2.36678e-41
1.88696e-42
-1.81807e-40
1.78373e-41
-1.34981e-39
1.64717e-40
-7.15792e-39
1.28933e-39
-3.65926e-38
1.00368e-38
-3.0548e-38
5.40565e-38
2.94013e-37
-3.01188e-42
-2.98047e-40
3.40098e-42
-4.82544e-41
5.80686e-43
-5.19897e-42
8.68715e-44
-1.80757e-43
7.3005e-45
6.77546e-44
1.6838e-46
1.64477e-44
-7.10641e-47
2.88989e-45
-1.89604e-47
3.80525e-46
-2.93869e-48
4.59031e-47
-3.87042e-49
4.85284e-48
-4.34698e-50
4.8392e-49
-4.51284e-51
4.43921e-50
-4.27454e-52
3.883e-51
-3.82656e-53
3.19098e-52
-3.20988e-54
2.46963e-53
-2.56292e-55
1.68212e-54
-1.61323e-56
-2.96313e-55
1.66968e-57
5.36389e-57
-1.03255e-57
4.07099e-55
-1.57774e-57
9.57721e-56
-3.81633e-58
2.29606e-56
-8.69237e-59
3.63525e-57
-1.86633e-59
5.45529e-58
-8.51364e-59
7.00812e-59
-1.3669e-57
4.73279e-59
-2.18164e-56
6.68303e-58
-3.3846e-55
1.1018e-56
-5.07979e-54
1.76698e-55
-7.39263e-53
2.7549e-54
-1.03586e-51
4.15984e-53
-1.40385e-50
6.09245e-52
-1.81943e-49
8.60561e-51
-2.27457e-48
1.17587e-49
-2.69137e-47
1.54059e-48
-3.06388e-46
1.94659e-47
-3.24566e-45
2.3384e-46
-3.30228e-44
2.69969e-45
-3.03073e-43
2.924e-44
-2.67409e-42
3.0319e-43
-1.99037e-41
2.88255e-42
-1.43506e-40
2.61147e-41
-7.18762e-40
2.07186e-40
-3.57337e-39
1.54943e-39
-2.08053e-39
8.96657e-39
4.61209e-38
-3.39642e-41
-3.10311e-39
3.87375e-41
-4.74559e-40
6.27815e-42
-3.45589e-41
8.14571e-43
1.37666e-42
5.11257e-44
1.18649e-42
-3.30496e-45
2.21835e-43
-1.44367e-45
3.49368e-44
-2.87593e-46
4.33578e-45
-4.03851e-47
5.02648e-46
-5.03657e-48
5.16286e-47
-5.46334e-49
5.03835e-48
-5.53439e-50
4.54238e-49
-5.14599e-51
3.91921e-50
-4.54164e-52
3.17965e-51
-3.76503e-53
2.39589e-52
-2.97127e-54
1.46947e-53
-1.59808e-55
-6.52459e-54
4.28088e-56
1.66868e-56
-1.89704e-56
7.3735e-54
-3.0051e-56
1.7271e-54
-7.25138e-57
4.13653e-55
-1.64593e-57
6.53164e-56
-2.60215e-58
9.792e-57
-3.14981e-59
1.21851e-57
1.16e-58
1.90886e-58
2.06184e-57
8.56726e-58
3.4094e-56
1.42e-56
5.4928e-55
2.3331e-55
8.52771e-54
3.72397e-54
1.28934e-52
5.78048e-53
1.86686e-51
8.68698e-52
2.63169e-50
1.26702e-50
3.52067e-49
1.78113e-49
4.58866e-48
2.42492e-48
5.59754e-47
3.16166e-47
6.66963e-46
3.98433e-46
7.27266e-45
4.76203e-45
7.79601e-44
5.49425e-44
7.35025e-43
5.91719e-43
6.91005e-42
6.15859e-42
5.27301e-41
5.8136e-41
4.13355e-40
5.34151e-40
2.12902e-39
4.1808e-39
1.2004e-38
3.23507e-38
1.74464e-37
-3.31265e-40
-2.56205e-38
3.71714e-40
-3.81399e-39
5.70268e-41
-7.51646e-41
5.67573e-42
4.7674e-41
9.38385e-44
1.52255e-41
-9.7931e-44
2.41587e-42
-2.20472e-44
3.46342e-43
-3.70982e-45
4.06649e-44
-4.82652e-46
4.52708e-45
-5.73826e-47
4.51665e-46
-6.02859e-48
4.30912e-47
-5.96481e-49
3.81716e-48
-5.44816e-50
3.24712e-49
-4.74167e-51
2.59541e-50
-3.88489e-52
1.84875e-51
-3.02267e-53
8.0707e-53
-1.05926e-54
-1.28397e-52
9.38787e-55
-5.97004e-55
-3.44697e-55
1.30401e-52
-5.59519e-55
3.03785e-53
-1.34552e-55
7.26419e-54
-3.05175e-56
1.1432e-54
-4.81393e-57
1.71164e-55
-5.8886e-58
2.12229e-56
1.95717e-57
2.71015e-57
3.36603e-56
4.25131e-57
5.38393e-55
6.75532e-56
8.37078e-54
1.11353e-54
1.25973e-52
1.78412e-53
1.83943e-51
2.78234e-52
2.58796e-50
4.20217e-51
3.52469e-49
6.1671e-50
4.59565e-48
8.72645e-49
5.78649e-47
1.19801e-47
6.90751e-46
1.57576e-46
7.94558e-45
2.00869e-45
8.52894e-44
2.4302e-44
8.81131e-43
2.85046e-43
8.25526e-42
3.12624e-42
7.45234e-41
3.33902e-41
5.73909e-40
3.25285e-40
4.27592e-39
3.13024e-39
2.27457e-38
2.60946e-38
1.16671e-37
2.18474e-37
1.31313e-36
-3.60947e-39
-2.44688e-37
3.58317e-39
-3.24725e-38
4.89255e-40
1.30455e-39
2.81916e-41
7.17043e-40
-3.59863e-42
1.72313e-40
-1.63608e-42
2.45685e-41
-2.92377e-43
3.29009e-42
-4.44676e-44
3.68178e-43
-5.46597e-45
3.95966e-44