/*--------------------------------*- C++ -*----------------------------------*\
| =========                 |                                                 |
| \\      /  F ield         | OpenFOAM: The Open Source CFD Toolbox           |
|  \\    /   O peration     | Version:  2.4.0                                 |
|   \\  /    A nd           | Web:      www.OpenFOAM.org                      |
|    \\/     M anipulation  |                                                 |
\*---------------------------------------------------------------------------*/
FoamFile
{
    version     2.0;
    format      ascii;
    class       surfaceScalarField;
    location    "0.9";
    object      phi;
}
// * * * * * * * * * * * * * * * * * * * * * * * * * * * * * * * * * * * * * //

dimensions      [0 3 -1 0 0 0 0];

internalField   nonuniform List<scalar> 
3742
(
-4.17142e-36
2.28747e-36
-7.21097e-37
3.30981e-37
-1.05042e-37
4.6531e-38
-1.47734e-38
5.77756e-39
-1.87687e-39
6.93999e-40
-2.28474e-40
7.73444e-41
-2.59154e-41
8.31632e-42
-2.81881e-42
8.46368e-43
-2.90432e-43
8.31311e-44
-2.87819e-44
7.8115e-45
-2.72871e-45
7.09755e-46
-2.49657e-46
6.21119e-47
-2.19463e-47
5.26793e-48
-1.23996e-48
4.28044e-49
7.73941e-48
-1.80228e-50
9.45804e-47
-6.16191e-49
1.09496e-45
-7.14116e-48
1.21971e-44
-8.03535e-47
1.30958e-43
-8.83316e-46
1.34634e-42
-9.42575e-45
1.33063e-41
-9.79465e-44
1.24966e-40
-9.81111e-43
1.1253e-39
-9.53026e-42
9.51211e-39
-8.83356e-41
-7.90784e-40
-4.25485e-34
5.74123e-36
-1.86721e-33
3.64325e-35
-1.6377e-33
1.82373e-34
-4.20362e-32
2.43295e-35
2.69535e-32
-3.52635e-34
1.38228e-32
-8.2962e-35
-1.26872e-32
2.15328e-34
6.64512e-34
1.74751e-35
7.09609e-34
-1.2637e-34
1.55543e-32
-8.55009e-35
2.2844e-33
-2.87371e-35
1.62581e-32
-1.71594e-34
1.72645e-33
1.43008e-36
1.51819e-32
7.25738e-35
-1.33324e-32
7.57239e-35
1.35234e-32
2.60997e-35
-1.44152e-32
6.18175e-35
-4.81161e-34
3.84174e-37
-5.97016e-34
-5.90922e-35
-1.39648e-34
-1.17099e-35
-2.15579e-35
-2.28747e-36
-3.56477e-36
-3.30981e-37
-4.93677e-37
-4.6531e-38
-6.74655e-38
-5.77756e-39
-8.32835e-39
-6.93999e-40
-9.94084e-40
-7.73444e-41
-1.10673e-40
-8.31632e-42
-1.1868e-41
-8.46368e-43
-1.20673e-42
-8.31311e-44
-1.18308e-43
-7.8115e-45
-1.11053e-44
-7.09755e-46
-1.00751e-45
-6.21122e-47
-8.80653e-47
-5.2716e-48
-7.34602e-48
-4.68501e-49
9.45181e-49
-4.14366e-49
1.98697e-47
-3.8428e-48
2.41154e-46
-3.74702e-47
2.77154e-45
-3.50152e-46
3.0306e-44
-3.16904e-45
3.14689e-43
-2.74671e-44
3.11142e-42
-2.33407e-43
2.90752e-41
-1.91251e-42
2.58325e-40
-1.57379e-41
2.14675e-39
-1.26276e-40
-1.03749e-39
-7.36803e-35
7.54947e-36
-3.01752e-34
4.36408e-35
-1.38452e-33
2.1189e-34
-1.52693e-33
2.72152e-35
5.93005e-34
-4.09132e-34
1.09871e-33
-9.70134e-35
-1.70626e-34
2.49126e-34
-2.60992e-34
2.07319e-35
4.94041e-34
-1.4682e-34
1.01041e-33
-9.93279e-35
1.12108e-33
-2.66905e-35
1.1225e-33
-1.09109e-35
1.02976e-33
9.31269e-36
5.74677e-34
8.53858e-35
1.01669e-34
8.8494e-35
-6.74866e-35
3.11232e-35
-4.48234e-34
7.18557e-35
-4.52406e-34
4.67071e-37
-9.65861e-35
-6.8573e-35
-2.41955e-35
-1.39468e-35
-4.17142e-36
-2.74994e-36
-7.21097e-37
-4.02058e-37
-1.05042e-37
-5.68428e-38
-1.47734e-38
-7.09891e-39
-1.87687e-39
-8.5605e-40
-2.28474e-40
-9.57689e-41
-2.59154e-41
-1.03272e-41
-2.81881e-42
-1.05392e-42
-2.90432e-43
-1.03749e-43
-2.87819e-44
-9.76945e-45
-2.72871e-45
-8.89249e-46
-2.49666e-46
-7.79524e-47
-2.20421e-47
-6.645e-48
-2.31678e-48
-7.97467e-49
-4.12087e-48
-2.65794e-48
-3.30439e-47
-2.57338e-47
-2.52961e-46
-2.4197e-46
-1.68651e-45
-2.14391e-45
-9.2768e-45
-1.80123e-44
-2.74253e-44
-1.39728e-43
1.61923e-43
-1.01682e-42
4.25857e-42
-6.56195e-42
4.98315e-41
-3.91048e-41
4.63192e-40
-1.87841e-40
-8.36853e-40
-1.15113e-35
5.62038e-36
-3.20014e-35
9.94356e-36
-1.06638e-34
3.56431e-35
-1.13338e-34
3.51886e-36
3.79986e-35
-6.6242e-35
7.72791e-35
-1.65252e-35
-6.97285e-36
3.95902e-35
-1.18354e-35
3.82816e-36
4.21114e-35
-2.40558e-35
8.3463e-35
-1.70131e-35
9.50078e-35
-5.07939e-36
9.35451e-35
-6.87923e-36
8.40783e-35
1.83956e-36
4.89854e-35
1.43254e-35
1.0776e-35
1.49705e-35
-5.59811e-36
5.94534e-36
-3.4759e-35
1.17909e-35
-3.54601e-35
1.00142e-37
-9.93692e-36
-1.11231e-35
-3.50394e-36
-2.6451e-36
-7.01542e-37
-5.53147e-37
-1.36222e-37
-8.57488e-38
-2.1283e-38
-1.25424e-38
-3.15542e-39
-1.61747e-39
-4.15968e-40
-1.99434e-40
-5.21067e-41
-2.27715e-41
-6.04056e-42
-2.49404e-42
-6.68555e-43
-2.58146e-43
-6.98452e-44
-2.57043e-44
-7.00036e-45
-2.44567e-45
-6.69854e-46
-2.24566e-46
-6.17971e-47
-1.98559e-47
-5.88104e-48
-1.85153e-48
-4.4387e-48
-1.80812e-48
-3.71016e-47
-1.73359e-47
-3.25737e-46
-1.71748e-46
-2.70419e-45
-1.62861e-45
-2.0688e-44
-1.45715e-44
-1.47231e-43
-1.23766e-43
-9.24316e-43
-9.72252e-43
-5.23459e-42
-7.16491e-42
-2.31506e-41
-4.67814e-41
-8.28842e-41
-2.79256e-40
-8.83569e-41
-1.30113e-39
-5.08137e-39
-1.11196e-35
7.69213e-36
-1.02347e-35
6.71352e-36
-7.54518e-36
7.16042e-36
-6.4057e-36
7.11249e-37
1.36432e-36
-1.09474e-35
3.58036e-36
-2.78646e-36
1.12684e-37
6.49696e-36
2.20824e-37
6.46972e-37
2.8292e-36
-4.00182e-36
5.23138e-36
-2.89597e-36
6.13419e-36
-9.52805e-37
5.87539e-36
-1.37995e-36
5.14841e-36
2.74059e-37
3.19094e-36
2.39578e-36
8.75087e-37
2.529e-36
-2.84794e-37
1.04636e-36
-1.95132e-36
1.97066e-36
-2.0385e-36
1.97356e-38
-7.71836e-37
-1.84484e-36
-3.82173e-37
-4.6176e-37
-8.72933e-38
-1.03186e-37
-1.84331e-38
-1.67882e-38
-3.04374e-39
-2.56333e-39
-4.68646e-40
-3.41557e-40
-6.3614e-41
-4.32462e-41
-8.14338e-42
-5.0413e-42
-9.61152e-43
-5.61432e-43
-1.07892e-43
-5.88978e-44
-1.14091e-44
-5.92933e-45
-1.1549e-45
-5.6929e-46
-1.11499e-46
-5.26739e-47
-1.0656e-47
-4.76671e-48
-4.0651e-48
-1.35062e-48
-3.1084e-47
-1.03483e-47
-2.92266e-46
-1.08083e-46
-2.59765e-45
-1.08226e-45
-2.18615e-44
-1.03846e-44
-1.70083e-43
-9.42253e-44
-1.23635e-42
-8.13957e-43
-7.98384e-42
-6.5273e-42
-4.69965e-41
-4.93333e-41
-2.21752e-40
-3.32373e-40
-8.95017e-40
-2.06013e-39
-1.84653e-39
-1.0044e-38
-4.11262e-38
-1.87366e-34
9.93984e-35
-1.32939e-35
8.33258e-36
-1.01079e-35
7.21284e-37
-2.3309e-36
-5.83903e-38
-4.10844e-37
-1.38589e-36
-7.15543e-38
-3.57061e-37
6.97862e-38
7.92208e-37
1.5207e-37
8.23538e-38
1.61865e-37
-4.96351e-37
2.44602e-37
-3.67859e-37
3.08558e-37
-1.311e-37
2.62798e-37
-1.83979e-37
2.11686e-37
3.15883e-38
1.6152e-37
2.99309e-37
6.70496e-38
3.18788e-37
8.67892e-40
1.37992e-37
-5.58384e-38
2.4533e-37
-6.65779e-38
2.8492e-39
-5.46308e-38
-2.27853e-37
-4.24871e-38
-6.04994e-38
-1.07661e-38
-1.42014e-38
-2.44332e-39
-2.41086e-39
-4.21182e-40
-3.80457e-40
-6.70067e-41
-5.2116e-41
-9.31716e-42
-6.74033e-42
-1.21567e-42
-7.99914e-43
-1.45675e-43
-9.03517e-44
-1.6555e-44
-9.59402e-45
-1.76845e-45
-9.75452e-46
-1.80535e-46
-9.44689e-47
-1.77286e-47
-8.83479e-48
-3.61051e-48
-1.16464e-48
-2.0694e-47
-4.36037e-48
-2.04561e-46
-4.70981e-47
-1.94775e-45
-4.98156e-46
-1.7527e-44
-5.04644e-45
-1.4969e-43
-4.90737e-44
-1.18652e-42
-4.52862e-43
-8.82243e-42
-3.9895e-42
-5.87542e-41
-3.28343e-41
-3.59514e-40
-2.5568e-40
-1.80464e-39
-1.79545e-39
-7.94329e-39
-1.16307e-38
-2.08947e-38
-6.05345e-38
-2.61235e-37
-9.51458e-36
1.59711e-35
-8.36378e-36
1.50183e-35
-1.81605e-36
6.46577e-37
-4.13062e-37
-8.35649e-38
-9.12907e-38
-2.00564e-37
-3.54435e-38
-4.95783e-38
9.11749e-39
9.60402e-38
2.19965e-38
1.00841e-38
8.57634e-39
-6.12765e-38
7.18232e-39
-4.62091e-38
1.14904e-38
-1.78428e-38
5.71415e-39
-2.67291e-38
2.17599e-39
3.01967e-39
6.01115e-39
3.69153e-38
5.10479e-39
3.97212e-38
1.975e-39
1.76045e-38
2.87105e-39
3.03892e-38
1.69725e-39
3.91347e-40
-3.77411e-39
-2.80586e-38
-4.32106e-39
-7.67482e-39
-1.17798e-39
-1.88014e-39
-2.80337e-40
-3.29631e-40
-4.99219e-41
-5.35332e-41
-8.13707e-42
-7.50017e-42
-1.15377e-42
-9.88096e-43
-1.52867e-43
-1.19024e-43
-1.85568e-44
-1.36085e-44
-2.13112e-45
-1.45965e-45
-2.29729e-46
-1.49648e-46
-2.37245e-47
-1.46055e-47
-3.42561e-48
-1.50346e-48
-1.23792e-47
-1.73019e-48
-1.27893e-46
-1.84699e-47
-1.28589e-45
-2.04495e-46
-1.23908e-44
-2.18661e-45
-1.13079e-43
-2.24261e-44
-9.82379e-43
-2.21151e-43
-7.95217e-42
-2.07471e-42
-6.07305e-41
-1.86312e-41
-4.18886e-40
-1.56977e-40
-2.68919e-39
-1.2582e-39
-1.44961e-38
-9.16857e-39
-7.10861e-38
-6.24718e-38
-2.32884e-37
-3.47832e-37
-1.6861e-36
-5.75904e-37
2.8125e-34
-1.01269e-36
1.80447e-35
-2.57375e-37
1.85243e-36
-7.33966e-38
1.45099e-37
-1.71561e-38
-9.30816e-39
-6.22683e-39
-4.4103e-39
8.49987e-40
1.03856e-38
2.58412e-39
1.11046e-39
4.88779e-40
-6.63427e-39
-1.37478e-40
-5.08931e-39
1.7563e-40
-2.09937e-39
-5.49045e-40
-3.21345e-39
-8.32905e-40
2.45784e-40
6.11323e-41
3.99676e-39
4.31839e-40
4.3404e-39
3.08306e-40
1.97119e-39
7.44228e-40
3.29981e-39
6.17696e-40
4.64791e-41
-2.92424e-40
-3.02979e-39
-4.46646e-40
-8.55532e-40
-1.27145e-40
-2.16487e-40
-3.12878e-41
-3.90065e-41
-5.70263e-42
-6.47873e-42
-9.47376e-43
-9.25027e-43
-1.36394e-43
-1.23723e-43
-1.82991e-44
-1.50965e-44
-2.24466e-45
-1.74417e-45
-2.60024e-46
-1.88774e-46
-2.82703e-47
-1.95e-47
-3.34344e-48
-1.93124e-48
-5.10432e-48
-3.93553e-49
-5.30642e-47
-2.57318e-48
-5.63109e-46
-2.96903e-47
-5.7306e-45
-3.33234e-46
-5.59869e-44
-3.60639e-45
-5.19949e-43
-3.75761e-44
-4.61053e-42
-3.75549e-43
-3.83565e-41
-3.59587e-42
-3.02676e-40
-3.2801e-41
-2.18909e-39
-2.85035e-40
-1.49001e-38
-2.33662e-39
-8.83969e-38
-1.80781e-38
-4.89521e-37
-1.28418e-37
-2.05245e-36
-8.20976e-37
-4.21443e-36
-2.5574e-36
-7.96956e-35
1.37488e-36
6.43506e-36
1.92796e-37
1.81928e-36
1.34165e-38
2.95287e-37
-2.39337e-39
4.77634e-38
-1.36311e-39
6.4018e-39
-8.1383e-41
2.03846e-39
2.32697e-40
2.34519e-40
2.93322e-41
-6.90593e-40
-4.48383e-41
-5.46625e-40
-2.08065e-41
-2.41033e-40
-9.98078e-41
-3.87367e-40
-1.24443e-40
1.40934e-41
-1.70415e-41
4.22541e-40
3.76741e-41
4.63443e-40
3.43496e-41
2.13849e-40
8.94563e-41
3.51143e-40
7.6862e-41
5.28034e-42
-2.41558e-41
-3.21037e-40
-4.3174e-41
-9.24905e-41
-1.26704e-41
-2.40246e-41
-3.19164e-42
-4.4187e-42
-5.92707e-43
-7.47411e-43
-9.99612e-44
-1.08321e-43
-1.45781e-44
-1.46692e-44
-1.97652e-45
-1.80864e-45
-2.4467e-46
-2.10771e-46
-2.85695e-47
-2.29802e-47
-3.27513e-48
-2.39064e-48
-2.15382e-48
-2.67546e-49
-2.11e-47
-4.24646e-49
-2.3416e-46
-4.93673e-48
-2.51211e-45
-5.85452e-47
-2.58668e-44
-6.73881e-46
-2.56083e-43
-7.46621e-45
-2.41473e-42
-8.01351e-44
-2.17943e-41
-8.22378e-43
-1.85119e-40
-8.18278e-42
-1.49827e-39
-7.7253e-41
-1.1165e-38
-7.14283e-40
-7.90945e-38
-6.23051e-39
-4.9059e-37
-5.45935e-38
-2.93186e-36
-4.38056e-37
-1.31158e-35
-3.47384e-36
-2.06397e-35
-1.25038e-35
5.12259e-36
-6.72685e-36
-1.31847e-36
-1.52175e-36
8.94389e-37
-3.71826e-37
2.02022e-37
-6.59527e-38
3.96317e-38
-1.14453e-38
5.77312e-39
-1.67053e-39
9.17205e-40
-2.1105e-40
1.11948e-40
-2.73305e-41
-5.70273e-41
-8.60341e-42
-5.30779e-41
-3.49716e-42
-2.51589e-41
-1.15839e-41
-4.17734e-41
-1.38604e-41
2.91678e-43
-2.60152e-42
4.1197e-41
3.3961e-42
4.5605e-41
3.45388e-42
2.1378e-41
9.15901e-42
3.44362e-41
7.94043e-42
5.4817e-43
-2.12956e-42
-3.13603e-41
-4.10296e-42
-9.22063e-42
-1.22755e-42
-2.44475e-42
-3.14638e-43
-4.57655e-43
-5.92616e-44
-7.8563e-44
-1.01156e-44
-1.15325e-44
-1.49044e-45
-1.57821e-45
-2.03813e-46
-1.96364e-46
-2.54177e-47
-2.3056e-47
-2.99881e-48
-2.53031e-48
-5.00938e-49
-2.64619e-49
-2.12162e-48
-2.93733e-50
-2.4386e-47
-4.69715e-50
-2.75608e-46
-6.08083e-49
-3.00195e-45
-7.93953e-48
-3.15319e-44
-1.01015e-46
-3.17242e-43
-1.22673e-45
-3.06583e-42
-1.46934e-44
-2.81239e-41
-1.7033e-43
-2.46681e-40
-2.05027e-42
-2.0214e-39
-2.55411e-41
-1.57287e-38
-3.57646e-40
-1.10112e-37
-5.21242e-39
-7.16172e-37
-7.69292e-38
-3.68402e-36
-1.00937e-36
-1.59938e-35
-1.12333e-35
-9.20853e-35
-2.08352e-34
-6.01844e-36
-1.39519e-35
-2.04838e-36
-1.09269e-35
-1.20512e-36
-2.42072e-36
-2.22511e-37
-3.78173e-37
-4.04043e-38
-6.13817e-38
-5.76632e-39
-8.50399e-39
-7.86164e-40
-1.14935e-39
-9.73898e-41
-1.41617e-40
-1.83217e-41
-1.72727e-41
-6.55021e-42
-2.162e-42
-2.71261e-42
-1.3237e-42
-4.4199e-42
-1.35705e-42
-9.53577e-44
-2.77511e-43
3.89629e-42
2.95695e-43
4.35544e-42
3.18125e-43
2.06567e-42
8.43258e-43
3.2825e-42
7.32345e-43
5.45781e-44
-1.8417e-43
-2.98006e-42
-3.67885e-43
-8.89098e-43
-1.11872e-43
-2.39666e-43
-2.90682e-44
-4.54848e-44
-5.54178e-45
-7.9022e-45
-9.55471e-46
-1.17195e-45
-1.42041e-46
-1.6176e-46
-1.95676e-47
-2.02764e-47
-2.45949e-48
-2.39544e-48
-3.33716e-49
-2.6358e-49
-5.81362e-49
-1.80963e-50
-6.71241e-48
1.21714e-49
-7.93241e-47
1.55934e-48
-9.09044e-46
1.89817e-47
-1.0041e-44
2.23539e-46
-1.07232e-43
2.55053e-45
-1.09692e-42
2.80073e-44
-1.08242e-41
2.96579e-43
-1.01328e-40
2.98288e-42
-9.13897e-40
2.8351e-41
-7.68329e-39
2.40356e-40
-6.22593e-38
1.64202e-39
-4.50706e-37
3.48564e-39
-3.13821e-36
-1.40214e-37
-1.68457e-35
-3.46716e-36
-8.57399e-35
-4.9915e-35
-5.26644e-34
-1.19968e-35
-7.00146e-36
-7.38876e-36
-5.82952e-36
-1.65755e-36
-1.75126e-36
-3.99461e-37
-2.92352e-37
-6.99208e-38
-5.02779e-38
-1.19681e-38
-7.08359e-39
-1.75116e-39
-9.74446e-40
-2.45001e-40
-1.20843e-40
-3.11522e-41
-1.50617e-41
-3.81879e-42
-2.09067e-42
-4.5278e-43
-4.18417e-43
-1.49875e-43
-4.48309e-43
-1.27483e-43
-2.07043e-44
-2.6894e-44
3.47194e-43
2.52117e-44
3.91912e-43
2.81165e-44
1.87991e-43
7.42854e-44
2.94839e-43
6.45106e-44
5.09403e-45
-1.57616e-44
-2.66917e-43
-3.20744e-44
-8.07814e-44
-9.87258e-45
-2.207e-44
-2.59332e-45
-4.23916e-45
-4.99212e-46
-7.43887e-46
-8.67776e-47
-1.11314e-46
-1.29944e-47
-1.54777e-47
-1.80089e-48
-1.95283e-48
-2.26252e-49
-2.3192e-49
-1.38294e-50
-2.51182e-50
1.61115e-49
5.23067e-51
1.99156e-48
1.02322e-49
2.33925e-47
1.28705e-48
2.66014e-46
1.56872e-47
2.91346e-45
1.85015e-46
3.08048e-44
2.11457e-45
3.11668e-43
2.32619e-44
3.03441e-42
2.46894e-43
2.79898e-41
2.49022e-42
2.47655e-40
2.37832e-41
2.0393e-39
2.035e-40
1.60384e-38
1.42735e-39
1.12505e-37
3.84946e-39
7.4144e-37
-1.03415e-37
3.76771e-36
-2.74255e-36
1.66047e-35
-4.05859e-35
-4.41798e-34
-1.32271e-36
-1.05221e-34
-1.22255e-37
-8.31824e-36
-9.20228e-38
-1.04246e-36
-4.15027e-38
-1.13569e-37
-9.49483e-39
-1.35368e-38
-1.93937e-39
-1.6471e-39
-3.15473e-40
-2.14622e-40
-4.76151e-41
-2.66896e-41
-6.38141e-42
-3.2956e-42
-8.08973e-43
-4.11429e-43
-9.6014e-44
-6.29894e-44
-1.94109e-44
-4.50124e-44
-1.1717e-44
-3.07257e-45
-2.46354e-45
2.99467e-44
2.05091e-45
3.41605e-44
2.35955e-45
1.65363e-44
6.20532e-45
2.56765e-44
5.38485e-45
4.57387e-46
-1.2932e-45
-2.31914e-44
-2.66609e-45
-7.09733e-45
-8.29823e-46
-1.96044e-45
-2.19965e-46
-3.80214e-46
-4.27062e-47
-6.72706e-47
-7.47564e-48
-1.01401e-47
-1.12657e-48
-1.41854e-48
-1.56422e-49
-1.79947e-49
-1.26487e-50
-2.15154e-50
9.1494e-50
-3.00797e-51
1.1794e-48
-8.45937e-51
1.44033e-47
-1.06074e-49
1.70234e-46
-1.3307e-48
1.95e-45
-1.62221e-47
2.15263e-44
-1.91361e-46
2.29725e-43
-2.18754e-45
2.34778e-42
-2.40681e-44
2.31423e-41
-2.55468e-43
2.16334e-40
-2.57599e-42
1.9479e-39
-2.45745e-41
1.63406e-38
-2.09442e-40
1.32073e-37
-1.44879e-39
9.52948e-37
-3.38578e-39
6.60948e-36
1.17714e-37
3.53077e-35
2.99912e-36
1.78585e-34
4.39637e-35
4.75647e-34
2.95441e-37
-9.65678e-36
-4.89955e-37
-5.54633e-36
-9.91023e-38
-6.43713e-37
-2.33043e-38
-5.99048e-38
-3.87171e-39
-5.39281e-39
-6.4372e-40
-5.08999e-40
-9.21679e-41
-5.62575e-41
-1.27317e-41
-6.54349e-42
-1.6042e-42
-7.84523e-43
-1.9372e-43
-9.23111e-44
-2.19712e-44
-1.1729e-44
-3.11135e-45
-4.67179e-45
-1.13319e-45
-4.04413e-46
-2.25819e-46
2.46014e-45
1.61075e-46
2.84004e-45
1.9154e-46
1.38702e-45
5.02163e-46
2.13336e-45
4.35457e-46
3.90494e-47
-1.03366e-46
-1.92285e-45
-2.15137e-46
-5.94775e-46
-6.75685e-47
-1.65798e-46
-1.80451e-47
-3.24327e-47
-3.52815e-48
-5.77854e-48
-6.2118e-49
-8.76665e-49
-9.41066e-50
-1.23287e-49
-1.31037e-50
-1.57174e-50
-8.04823e-52
-1.93441e-51
1.10101e-50
-9.20765e-52
1.39961e-49
-9.44581e-51
1.69688e-48
-1.21674e-49
1.99002e-47
-1.5254e-48
2.2594e-46
-1.85776e-47
2.47036e-45
-2.18918e-46
2.60675e-44
-2.49954e-45
2.63177e-43
-2.74639e-44
2.55555e-42
-2.91001e-43
2.3507e-41
-2.92723e-42
2.0722e-40
-2.78044e-41
1.69974e-39
-2.34802e-40
1.32904e-38
-1.58019e-39
9.26765e-38
-2.69721e-39
6.03984e-37
1.51014e-37
3.03545e-36
3.61038e-36
1.29288e-35
5.15632e-35
5.41724e-34
-2.98966e-38
-9.74536e-36
3.37541e-38
-5.7379e-36
5.6424e-39
-6.338e-37
6.37175e-40
-5.38948e-38
8.55145e-42
-3.86084e-39
-1.4011e-41
-2.51303e-40
-3.78469e-42
-1.7115e-41
-7.27171e-43
-1.35547e-42
-1.12537e-43
-1.30693e-43
-1.56709e-44
-1.38714e-44
-1.97131e-45
-1.61177e-45
-2.90121e-46
-4.65758e-46
-9.67454e-47
-4.62156e-47
-1.9165e-47
1.95711e-46
1.21787e-47
2.28852e-46
1.49307e-47
1.12617e-46
3.90253e-47
1.719e-46
3.38166e-47
3.21747e-48
-7.94668e-48
-1.54667e-46
-1.66833e-47
-4.82631e-47
-5.28399e-48
-1.35558e-47
-1.42018e-48
-2.67063e-48
-2.79419e-49
-4.78598e-49
-4.94433e-50
-7.29984e-50
-7.54477e-51
-1.03108e-50
-1.31524e-51
-1.3189e-51
-3.56706e-51
-1.5173e-52
-4.44536e-50
7.58513e-53
-5.58856e-49
1.24876e-51
-6.82865e-48
1.62774e-50
-8.07768e-47
2.05819e-49
-9.26188e-46
2.53058e-48
-1.02355e-44
3.01303e-47
-1.09371e-43
3.48302e-46
-1.11938e-42
3.88632e-45
-1.10527e-41
4.21816e-44
-1.0352e-40
4.43464e-43
-9.34307e-40
4.64376e-42
-7.85855e-39
4.91529e-41
-6.37261e-38
5.62312e-40
-4.61464e-37
6.92184e-39
-3.21519e-36
9.05534e-38
-1.72543e-35
1.11451e-36
-8.7828e-35
1.19726e-35
9.65587e-35
-3.76432e-37
-1.10991e-34
4.81774e-37
-8.58801e-36
8.87022e-38
-8.75527e-37
1.74961e-38
-6.77196e-38
2.43985e-39
-3.80317e-39
3.37672e-40
-1.18784e-40
4.07109e-41
7.7551e-42
4.78594e-42
1.99104e-42
5.19066e-43
2.76458e-43
5.449e-44
3.17042e-44
5.39849e-45
3.36653e-45
5.12254e-46
3.12339e-46
4.16798e-47
2.96472e-47
2.86544e-48
1.814e-47
1.27489e-48
1.80138e-47
1.16087e-48
8.81271e-48
2.94783e-48
1.33209e-47
2.55083e-48
2.54482e-49
-5.94366e-49
-1.19646e-47
-1.25698e-48
-3.76475e-48
-4.00949e-49
-1.06418e-48
-1.08337e-49
-2.10993e-49
-2.14279e-50
-3.80007e-50
-3.80775e-51
-5.82361e-51
-5.86738e-52
-8.25591e-52
-1.48736e-52
-1.04541e-52
-8.93631e-52
7.96658e-54
-1.13723e-50
2.81092e-52
-1.42153e-49
3.74631e-51
-1.72545e-48
4.83666e-50
-2.02653e-47
6.06331e-49
-2.30481e-46
7.38433e-48
-2.52489e-45
8.70296e-47
-2.67039e-44
9.9415e-46
-2.70303e-43
1.09399e-44
-2.63301e-42
1.16423e-43
-2.43067e-41
1.18627e-42
-2.15235e-40
1.16815e-41
-1.77458e-39
1.09346e-40
-1.39692e-38
9.95246e-40
-9.81473e-38
8.55846e-39
-6.46542e-37
7.28799e-38
-3.28666e-36
5.70688e-37
-1.43325e-35
4.345e-36
2.52436e-35
4.50824e-37
-6.61908e-36
-5.8834e-37
-5.0296e-36
-1.15148e-37
-5.00343e-37
-2.39601e-38
-3.42201e-38
-3.5519e-39
-7.35614e-40
-5.22987e-40
1.96626e-40
-6.73513e-41
4.67122e-41
-8.45482e-42
6.92004e-42
-9.80594e-43
8.97988e-43
-1.09972e-43
1.05119e-43
-1.16448e-44
1.16564e-44
-1.19069e-45
1.21546e-45
-1.16627e-46
1.21663e-46
-1.10648e-47
1.27835e-47
-9.29357e-49
2.40872e-48
-4.75342e-51
7.60462e-49
2.07352e-49
1.0103e-48
1.85269e-49
2.01344e-50
-4.3027e-50
-8.9897e-49
-9.15247e-50
-2.84898e-49
-2.93871e-50
-8.09622e-50
-7.97672e-51
-1.61387e-50
-1.58517e-51
-2.91878e-51
-2.82687e-52
-4.49086e-52
-4.35008e-53
-6.37912e-53
-8.19115e-54
-7.02207e-54
-2.78173e-53
1.58408e-53
-3.43589e-52
2.29522e-52
-4.22974e-51
3.05015e-51
-5.04402e-50
3.94504e-50
-5.80451e-49
4.9555e-49
-6.44416e-48
6.04882e-48
-6.86414e-47
7.14652e-47
-7.01885e-46
8.18661e-46
-6.8274e-45
9.03656e-45
-6.33242e-44
9.65204e-44
-5.51022e-43
9.87517e-43
-4.52621e-42
9.77561e-42
-3.39972e-41
9.20958e-41
-2.36931e-40
8.46183e-40
-1.42641e-39
7.37103e-39
-7.67962e-39
6.3973e-38
-3.02368e-38
5.12839e-37
-9.55871e-38
4.00744e-36
2.38666e-35
4.04041e-37
-6.32727e-36
-6.56324e-37
-1.17806e-36
-1.38607e-37
7.42042e-38
-3.25662e-38
4.1785e-38
-5.40307e-39
1.03705e-38
-8.88625e-40
1.70448e-39
-1.26066e-40
2.52517e-40
-1.72384e-41
3.27744e-41
-2.15333e-42
4.03148e-42
-2.57664e-43
4.59849e-43
-2.88828e-44
5.02018e-44
-3.10476e-45
5.18588e-45
-3.17031e-46
5.14976e-46
-3.11421e-47
4.89864e-47
-2.92522e-48
4.57766e-48
-2.60224e-49
4.43857e-49
-8.05784e-51
1.0663e-49
1.12047e-50
4.22265e-51
-3.18827e-51
-6.50888e-50
-6.49671e-51
-2.08199e-50
-2.09485e-51
-5.94691e-51
-5.70605e-52
-1.19134e-51
-1.13823e-52
-2.16245e-52
-2.01001e-53
-3.33969e-53
5.14089e-55
-4.86062e-54
4.91802e-53
-2.01979e-54
6.57735e-52
-1.96248e-53
8.48878e-51
-2.65276e-52
1.06404e-49
-3.50324e-51
1.29559e-48
-4.50211e-50
1.52726e-47
-5.61602e-49
1.74451e-46
-6.8013e-48
1.92079e-45
-7.9664e-47
2.04368e-44
-9.03384e-46
2.08331e-43
-9.85592e-45
2.04643e-42
-1.03647e-43
1.90814e-41
-1.03698e-42
1.70989e-40
-9.85368e-42
1.43013e-39
-8.52903e-41
1.14468e-38
-6.39967e-40
8.20372e-38
-3.07054e-39
5.51789e-37
1.04328e-38
2.87345e-36
5.4819e-37
1.2767e-35
8.17727e-36
7.83875e-35
-1.35246e-36
3.4213e-36
-4.56492e-37
-2.09776e-36
-1.82129e-37
1.20292e-36
-6.54149e-38
2.84417e-37
-1.38088e-38
5.71065e-38
-2.68512e-39
8.46856e-39
-4.24789e-40
1.18886e-39
-6.28916e-41
1.48216e-40
-8.31584e-42
1.77451e-41
-1.0398e-42
1.97775e-42
-1.2056e-43
2.12113e-43
-1.33196e-44
2.15693e-44
-1.39039e-45
2.11451e-45
-1.39125e-46
1.98494e-46
-1.32971e-47
1.80143e-47
-1.22372e-48
1.5777e-48
-1.07356e-49
1.38516e-49
-8.37553e-51
1.10378e-50
-9.75141e-52
-3.74534e-51
-5.07365e-52
-1.41412e-51
-1.495e-52
-4.19431e-52
-3.99157e-53
-8.50097e-53
-7.8813e-54
-1.55191e-53
-4.64831e-55
-2.43666e-54
1.32259e-53
-8.02921e-55
1.84178e-52
-6.61673e-54
2.45833e-51
-9.18333e-53
3.19549e-50
-1.25149e-51
4.03566e-49
-1.66065e-50
4.95435e-48
-2.14538e-49
5.89025e-47
-2.69134e-48
6.79249e-46
-3.28009e-47
7.553e-45
-3.86845e-46
8.12855e-44
-4.42169e-45
8.38354e-43
-4.86635e-44
8.35411e-42
-5.17292e-43
7.90168e-41
-5.24274e-42
7.2193e-40
-5.07829e-41
6.15082e-39
-4.53103e-40
5.0742e-38
-3.62815e-39
3.73857e-37
-2.13295e-38
2.6741e-36
-2.20481e-38
1.47008e-35
2.09558e-36
7.86313e-35
3.90763e-35
4.69148e-34
-1.30808e-35
-9.97973e-35
-1.05525e-35
3.75636e-36
-2.33095e-36
1.63017e-36
-5.49897e-37
2.86659e-37
-9.42577e-38
5.04746e-38
-1.58474e-38
7.11131e-39
-2.28775e-39
9.75967e-40
-3.16875e-40
1.20294e-40
-3.99511e-41
1.43203e-41
-4.8166e-42
1.58954e-42
-5.43006e-43
1.70008e-43
-5.86656e-44
1.72453e-44
-6.01473e-45
1.68729e-45
-5.93049e-46
1.58096e-46
-5.59975e-47
1.4321e-47
-5.10296e-48
1.25034e-48
-4.48e-49
1.06118e-49
-3.80307e-50
8.66888e-51
-3.14772e-51
3.72491e-52
-2.80186e-52
-4.89407e-53
-2.91559e-53
-2.53698e-53
-4.14741e-54
-5.63714e-54
-8.22337e-55
-1.06186e-54
-2.65846e-54
-1.72779e-55
-3.57058e-53
-1.14662e-55
-4.86375e-52
-1.3066e-54
-6.45353e-51
-1.82841e-53
-8.33564e-50
-2.50233e-52
-1.04556e-48
-3.33525e-51
-1.27383e-47
-4.32977e-50
-1.50205e-46
-5.45979e-49
-1.71604e-45
-6.69273e-48
-1.889e-44
-7.9432e-47
-2.00927e-43
-9.1491e-46
-2.04622e-42
-1.01688e-44
-2.00831e-41
-1.09861e-43
-1.86882e-40
-1.14888e-42
-1.67274e-39
-1.19469e-41
-1.39461e-38
-1.25405e-40
-1.11711e-37
-1.42091e-39
-7.9881e-37
-1.73635e-38
-5.45216e-36
-2.26344e-37
-2.86918e-35
-2.78929e-36
-1.3953e-34
-3.01045e-35
-2.45833e-34
-2.47915e-34
2.40335e-34
-1.91383e-35
1.76036e-35
-1.35853e-35
6.19742e-37
-3.00201e-36
-1.05661e-37
-4.67997e-37
-3.91278e-38
-7.56797e-38
-6.5704e-39
-1.04587e-38
-9.63166e-40
-1.41255e-39
-1.21334e-40
-1.7367e-40
-1.45431e-41
-2.05767e-41
-1.61653e-42
-2.28171e-42
-1.72829e-43
-2.43403e-43
-1.75167e-44
-2.46619e-44
-1.71226e-45
-2.40823e-45
-1.60297e-46
-2.25365e-46
-1.45084e-47
-2.03807e-47
-1.26558e-48
-1.7769e-48
-1.06981e-49
-1.50117e-49
-8.75778e-51
-1.22808e-50
-7.17638e-52
-9.77749e-52
-6.06593e-53
-7.59598e-53
-6.02423e-54
-5.85859e-54
-6.96832e-55
-7.8877e-55
-9.11642e-56
-4.9008e-54
3.66945e-56
-6.80816e-53
7.24948e-55
-9.29303e-52
1.04064e-53
-1.23527e-50
1.4541e-52
-1.59865e-49
1.98186e-51
-2.00945e-48
2.62994e-50
-2.45388e-47
3.39777e-49
-2.90079e-46
4.26264e-48
-3.32351e-45
5.19528e-47
-3.66975e-44
6.12696e-46
-3.91741e-43
7.00164e-45
-4.00486e-42
7.69927e-44
-3.94916e-41
8.16251e-43
-3.69329e-40
8.20581e-42
-3.32731e-39
7.76362e-41
-2.79297e-38
6.45615e-40
-2.25921e-37
4.08494e-39
-1.63154e-36
-1.45515e-40
-1.13294e-35
-5.67235e-37
-6.05946e-35
-1.23854e-35
-3.07052e-34
-1.73736e-34
-1.8181e-33
-1.36672e-35
1.34338e-34
-9.79016e-36
1.88322e-35
-2.17882e-36
5.83128e-37
-5.18708e-37
-1.38554e-37
-8.97094e-38
-4.76245e-38
-1.51967e-38
-7.97269e-39
-2.20644e-39
-1.17023e-39
-3.07013e-40
-1.48079e-40
-3.88461e-41
-1.7817e-41
-4.69701e-42
-1.98841e-42
-5.30781e-43
-2.13286e-43
-5.74591e-44
-2.16841e-44
-5.90095e-45
-2.12514e-45
-5.82672e-46
-1.99428e-46
-5.50866e-47
-1.80877e-47
-5.02549e-48
-1.58087e-48
-4.41692e-49
-1.33888e-49
-3.75814e-50
-1.09761e-50
-3.09444e-51
-8.75464e-52
-2.47466e-52
-6.80512e-53
-1.92369e-53
-5.21966e-54
-1.45365e-54
-3.99411e-55
-4.68165e-58
-2.99707e-56
1.54714e-54
2.05006e-56
2.17739e-53
3.38611e-55
2.97404e-52
4.85299e-54
3.95579e-51
6.78177e-53
5.12323e-50
9.2441e-52
6.44496e-49
1.22681e-50
7.87771e-48
1.58514e-49
9.32205e-47
1.98877e-48
1.06932e-45
2.42405e-47
1.18228e-44
2.85873e-46
1.26402e-43
3.26624e-45
1.29447e-42
3.58895e-44
1.27907e-41
3.7956e-43
1.19894e-40
3.78703e-42
1.08312e-39
3.50323e-41
9.11999e-39
2.7053e-40
7.40486e-38
1.19849e-39
5.36945e-37
-1.45008e-38
3.74674e-36
-5.20424e-37
2.01367e-35
-9.62268e-36
1.02639e-34
-1.28346e-34
-1.30071e-33
-2.01154e-36
2.14646e-35
4.04275e-37
1.26377e-35
-6.07079e-39
1.15865e-36
-2.89735e-38
6.01816e-38
-8.44069e-39
-3.5193e-39
-1.91264e-39
-1.31591e-39
-3.27716e-40
-2.33472e-40
-5.10715e-41
-3.19496e-41
-6.98672e-42
-3.99919e-42
-8.95566e-43
-4.58613e-43
-1.05779e-43
-5.01451e-44
-1.18579e-44
-5.18197e-45
-1.25228e-45
-5.14601e-46
-1.2651e-46
-4.88639e-47
-1.21886e-47
-4.47645e-48
-1.12968e-48
-3.94797e-49
-1.00623e-49
-3.37015e-50
-8.65939e-51
-2.78273e-51
-7.19968e-52
-2.23108e-52
-5.80392e-53
-1.73781e-53
-4.53761e-54
-1.32148e-54
-3.23135e-55
-9.86258e-56
3.02227e-55
-1.02628e-56
4.70128e-54
-4.56127e-56
6.58379e-53
-6.61118e-55
8.99068e-52
-9.47266e-54
1.19559e-50
-1.32445e-52
1.54805e-49
-1.8064e-51
1.94688e-48
-2.3989e-50
2.37891e-47
-3.10184e-49
2.81406e-46
-3.8949e-48
3.22663e-45
-4.75202e-47
3.56583e-44
-5.61099e-46
3.81029e-43
-6.42262e-45
3.89972e-42
-7.08141e-44
3.85061e-41
-7.54985e-43
3.60651e-40
-7.69542e-42
3.25507e-39
-7.55326e-41
2.73791e-38
-6.96566e-40
2.22036e-37
-6.07858e-39
1.60794e-36
-4.65829e-38
1.12058e-35
-2.99756e-37
6.01496e-35
-8.66433e-37
3.06451e-34
9.98742e-36
2.53868e-34
-2.32287e-37
1.34703e-34
1.80528e-37
1.14848e-35
3.35945e-38
1.23488e-36
2.91273e-39
1.00385e-37
-1.89264e-40
6.17842e-39
-1.41481e-40
2.40131e-40
-3.24619e-41
-8.05331e-42
-5.87598e-42
-3.24371e-42
-8.78779e-43
-5.25556e-43
-1.19655e-43
-6.77444e-44
-1.4766e-44
-7.95954e-45
-1.71102e-45
-8.65682e-46
-1.85503e-46
-8.94553e-47
-1.91392e-47
-8.77166e-48
-1.87653e-48
-8.25294e-49
-1.76478e-49
-7.44391e-50
-1.59167e-50
-6.47718e-51
-1.38443e-51
-5.43692e-52
-1.16179e-52
-4.42047e-53
-9.44088e-54
-3.48318e-54
-7.43944e-55
-2.66913e-55
-6.46436e-56
-1.99895e-56
-1.18153e-55
-2.52431e-57
-1.63476e-54
-1.6153e-56
-2.28846e-53
-2.35374e-55
-3.12574e-52
-3.37273e-54
-4.15769e-51
-4.71589e-53
-5.38494e-50
-6.4323e-52
-6.77452e-49
-8.54263e-51
-8.28107e-48
-1.10467e-49
-9.80014e-47
-1.38723e-48
-1.12427e-45
-1.69272e-47
-1.24319e-44
-1.99912e-46
-1.32934e-43
-2.28934e-45
-1.36162e-42
-2.52717e-44
-1.34574e-41
-2.70337e-43
-1.2618e-40
-2.7818e-42
-1.14033e-39
-2.80149e-41
-9.60621e-39
-2.76057e-40
-7.80427e-38
-2.80141e-39
-5.66328e-37
-2.94559e-38
-3.95538e-36
-3.32912e-37
-2.12815e-35
-3.67355e-36
-1.08617e-34
-3.72657e-35
-2.90968e-34
-3.49393e-37
2.20508e-35
4.33568e-37
8.9141e-36
7.33611e-38
1.05872e-36
1.35583e-38
9.66773e-38
1.73159e-39
7.87483e-39
2.17543e-40
6.12173e-40
2.31657e-41
5.17692e-41
2.34724e-42
4.72432e-42
2.09797e-43
4.65503e-43
1.70984e-44
4.58978e-44
1.16841e-45
4.48939e-45
5.89895e-47
4.2338e-46
2.24752e-49
3.87871e-47
-4.61871e-49
3.42314e-48
-8.29861e-50
2.93102e-49
-1.06489e-50
2.42753e-50
-1.17191e-51
1.95386e-51
-1.17207e-52
1.52659e-52
-1.09211e-53
1.16134e-53
-9.62568e-55
8.59939e-55
-8.23235e-56
6.2108e-56
-2.81482e-56
4.58017e-57
-3.18062e-55
3.49706e-57
-4.55693e-54
4.79754e-56
-6.38131e-53
7.03159e-55
-8.7174e-52
1.00736e-53
-1.15971e-50
1.40817e-52
-1.50222e-49
1.92011e-51
-1.89008e-48
2.54921e-50
-2.31064e-47
3.29518e-49
-2.73469e-46
4.13621e-48
-3.13743e-45
5.04427e-47
-3.46935e-44
5.95272e-46
-3.70979e-43
6.8075e-45
-3.79962e-42
7.4915e-44
-3.75507e-41
7.94907e-43
-3.52019e-40
7.9976e-42
-3.18091e-39
7.57177e-41
-2.67864e-38
6.2941e-40
-2.17609e-37
3.96327e-39
-1.57846e-36
-8.91504e-40
-1.10352e-35
-5.7113e-37
-5.93974e-35
-1.2428e-35
-3.05025e-34
-1.749e-34
-1.84392e-33
1.22953e-36
2.50469e-35
-1.60753e-36
1.84814e-35
-3.1828e-37
1.99998e-36
-6.53885e-38
1.68443e-37
-9.57501e-39
1.21539e-38
-1.38289e-39
8.3593e-40
-1.74747e-40
6.62184e-41
-2.14929e-41
6.44416e-42
-2.4443e-42
7.36072e-43
-2.68861e-43
8.51913e-44
-2.79474e-44
9.6537e-45
-2.80636e-45
1.0357e-45
-2.69357e-46
1.06339e-46
-2.50054e-47
1.03874e-47
-2.23446e-48
9.74682e-49
-1.93519e-49
8.77295e-50
-1.62104e-50
7.62072e-51
-1.31893e-51
6.38778e-52
-1.04159e-52
5.18676e-53
-8.00608e-54
4.08126e-54
-5.97922e-55
3.12022e-55
-2.85338e-56
2.3258e-56
2.19442e-55
2.71854e-57
3.19268e-54
1.57054e-56
4.47009e-53
2.28373e-55
6.10476e-52
3.26883e-54
8.11868e-51
4.5653e-53
1.05125e-49
6.21905e-52
1.32211e-48
8.24827e-51
1.61549e-47
1.06502e-49
1.9109e-46
1.33528e-48
2.19089e-45
1.62629e-47
2.42089e-44
1.91643e-46
2.58645e-43
2.18777e-45
2.64648e-42
2.40205e-44
2.61245e-41
2.5387e-43
2.4458e-40
2.53355e-42
2.2066e-39
2.34996e-41
1.85481e-38
1.83839e-40
1.50367e-37
8.83637e-40
1.08813e-36
-7.7721e-39
7.58863e-36
-3.10272e-37
4.0741e-35
-5.80098e-36
2.08864e-34
-7.69689e-35
-7.67829e-34
1.33778e-36
3.90934e-34
-1.87341e-36
2.93846e-35
-3.62063e-37
3.1768e-36
-7.71714e-38
2.82281e-37
-1.17236e-38
2.42992e-38
-1.78524e-39
2.24718e-39
-2.37305e-40
2.49543e-40
-3.07597e-41
2.96017e-41
-3.67393e-42
3.60283e-42
-4.23626e-43
4.17219e-43
-4.60137e-44
4.64803e-44
-4.81632e-45
4.89434e-45
-4.80568e-46
4.94267e-46
-4.62723e-47
4.76184e-47
-4.27904e-48
4.41734e-48
-3.82752e-49
3.93839e-49
-3.3052e-50
3.39412e-50
-2.76758e-51
2.82611e-51
-2.2458e-52
2.28191e-52
-1.7712e-53
1.78704e-53
-1.35654e-54
1.36073e-54
-8.30402e-56
1.00652e-55
2.61568e-55
5.14162e-57
3.85491e-54
-3.14736e-56