/*--------------------------------*- C++ -*----------------------------------*\
| =========                 |                                                 |
| \\      /  F ield         | OpenFOAM: The Open Source CFD Toolbox           |
|  \\    /   O peration     | Version:  2.4.0                                 |
|   \\  /    A nd           | Web:      www.OpenFOAM.org                      |
|    \\/     M anipulation  |                                                 |
\*---------------------------------------------------------------------------*/
FoamFile
{
    version     2.0;
    format      ascii;
    class       volVectorField;
    location    "0.9";
    object      U;
}
// * * * * * * * * * * * * * * * * * * * * * * * * * * * * * * * * * * * * * //

dimensions      [0 1 -1 0 0 0 0];

internalField   nonuniform List<vector> 
1915
(
(-6.88028e-32 4.93636e-32 0)
(-1.22204e-32 7.14259e-33 0)
(-1.7858e-33 1.00414e-33 0)
(-2.54478e-34 1.2468e-34 0)
(-3.24713e-35 1.49765e-35 0)
(-3.98399e-36 1.6691e-36 0)
(-4.53744e-37 1.79467e-37 0)
(-4.96203e-38 1.82647e-38 0)
(-5.13067e-39 1.79397e-39 0)
(-5.10497e-40 1.68572e-40 0)
(-4.85451e-41 1.53165e-41 0)
(-4.45568e-42 1.34038e-42 0)
(-3.93511e-43 1.13694e-43 0)
(-3.27604e-44 9.3724e-45 0)
(8.67604e-45 1.1639e-45 0)
(1.4165e-43 4.12166e-45 0)
(1.69542e-42 3.75072e-44 0)
(1.95724e-41 3.24487e-43 0)
(2.17336e-40 2.65319e-42 0)
(2.32631e-39 1.98422e-41 0)
(2.38242e-38 1.38454e-40 0)
(2.34629e-37 8.37642e-40 0)
(2.19263e-36 4.62916e-39 0)
(1.96645e-35 1.89585e-38 0)
(1.65093e-34 6.75197e-38 0)
(-1.03898e-30 2.78051e-34 0)
(-7.22539e-30 1.25295e-34 0)
(-2.90422e-29 9.06218e-35 0)
(-2.06066e-28 2.181e-35 0)
(-6.82894e-29 4.76167e-36 0)
(1.85219e-28 9.62538e-37 0)
(1.55012e-29 -9.81246e-37 0)
(-5.86299e-29 -5.10191e-35 0)
(3.77066e-30 -9.84492e-34 0)
(7.77786e-29 -1.33017e-32 0)
(8.88067e-29 -1.35702e-31 0)
(9.10967e-29 -9.77413e-31 0)
(8.91576e-29 -1.35702e-31 0)
(7.99085e-29 -1.33017e-32 0)
(1.16769e-29 -9.8452e-34 0)
(4.28576e-31 -5.1036e-35 0)
(-8.82265e-30 -1.07921e-36 0)
(-6.78705e-29 1.80264e-37 0)
(-9.24155e-30 4.21872e-38 0)
(-2.35452e-30 5.80238e-39 0)
(-3.5791e-31 7.24389e-40 0)
(-6.08171e-32 8.09017e-41 0)
(-8.42287e-33 8.76598e-42 0)
(-1.16601e-33 8.95279e-43 0)
(-1.44397e-34 8.94324e-44 0)
(-1.7368e-35 8.56657e-45 0)
(-1.94046e-36 8.02288e-46 0)
(-2.09178e-37 7.25532e-47 0)
(-2.13387e-38 6.40567e-48 0)
(-2.10023e-39 5.42054e-49 0)
(-1.9771e-40 -3.21516e-50 0)
(-1.79925e-41 -9.54682e-49 0)
(-1.57676e-42 -1.15207e-47 0)
(-1.33763e-43 -1.35194e-46 0)
(-8.92158e-45 -1.55283e-45 0)
(2.72802e-44 -1.74191e-44 0)
(3.58656e-43 -1.91614e-43 0)
(4.32537e-42 -2.05852e-42 0)
(4.95074e-41 -2.17152e-41 0)
(5.39138e-40 -2.2325e-40 0)
(5.57318e-39 -2.25214e-39 0)
(5.48612e-38 -2.20101e-38 0)
(5.09879e-37 -2.10293e-37 0)
(4.50768e-36 -1.92524e-36 0)
(3.71895e-35 -1.71327e-35 0)
(-1.97502e-31 1.23618e-31 0)
(-1.23362e-30 7.8609e-31 0)
(-4.62743e-30 3.93552e-30 0)
(-2.22647e-29 5.25009e-31 0)
(-7.39347e-30 -7.60987e-30 0)
(1.89116e-29 -1.79032e-30 0)
(2.42909e-30 4.64678e-30 0)
(-5.74322e-30 3.77164e-31 0)
(6.73867e-31 -2.72609e-30 0)
(8.92208e-30 -1.83181e-30 0)
(1.07034e-29 -4.84446e-31 0)
(1.10717e-29 -9.84078e-31 0)
(1.0731e-29 1.66563e-31 0)
(9.27044e-30 1.57945e-30 0)
(1.89175e-30 1.63511e-30 0)
(8.30098e-32 5.63284e-31 0)
(-1.39383e-30 1.33403e-30 0)
(-7.31239e-30 8.29031e-33 0)
(-1.47488e-30 -1.27521e-30 0)
(-4.01155e-31 -2.527e-31 0)
(-6.88028e-32 -4.93636e-32 0)
(-1.22204e-32 -7.14259e-33 0)
(-1.7858e-33 -1.00414e-33 0)
(-2.54478e-34 -1.2468e-34 0)
(-3.24713e-35 -1.49765e-35 0)
(-3.98399e-36 -1.6691e-36 0)
(-4.53744e-37 -1.79467e-37 0)
(-4.96203e-38 -1.82647e-38 0)
(-5.13067e-39 -1.79397e-39 0)
(-5.10497e-40 -1.68572e-40 0)
(-4.85451e-41 -1.53165e-41 0)
(-4.45569e-42 -1.34038e-42 0)
(-3.9366e-43 -1.1375e-43 0)
(-3.44728e-44 -9.97508e-45 0)
(-1.05269e-44 -7.3892e-45 0)
(-6.95144e-44 -6.55087e-44 0)
(-5.7231e-43 -6.16995e-43 0)
(-4.34105e-42 -5.49778e-42 0)
(-2.84167e-41 -4.66727e-41 0)
(-1.5177e-40 -3.69491e-40 0)
(-3.80922e-40 -2.78479e-39 0)
(3.52601e-39 -1.92619e-38 0)
(7.91899e-38 -1.29331e-37 0)
(8.88708e-37 -7.99791e-37 0)
(8.10805e-36 -5.25636e-36 0)
(-3.81577e-32 3.92999e-32 0)
(-1.85431e-31 1.55679e-31 0)
(-4.36145e-31 6.37081e-31 0)
(-1.63512e-30 6.22953e-32 0)
(-5.66297e-31 -1.21922e-30 0)
(1.30436e-30 -3.03228e-31 0)
(1.96664e-31 7.29377e-31 0)
(-3.321e-31 7.02311e-32 0)
(1.02216e-31 -4.42285e-31 0)
(7.1573e-31 -3.11688e-31 0)
(9.05405e-31 -9.15366e-32 0)
(9.39969e-31 -1.2213e-31 0)
(8.76994e-31 3.44052e-32 0)
(7.56093e-31 2.63181e-31 0)
(1.9537e-31 2.74594e-31 0)
(1.39367e-32 1.08356e-31 0)
(-1.22671e-31 2.16623e-31 0)
(-5.52466e-31 1.7891e-33 0)
(-1.3629e-31 -2.04597e-31 0)
(-5.67187e-32 -4.82733e-32 0)
(-1.13397e-32 -9.98027e-33 0)
(-2.28661e-33 -1.53384e-33 0)
(-3.59271e-34 -2.22528e-34 0)
(-5.41161e-35 -2.85149e-35 0)
(-7.17299e-36 -3.49705e-36 0)
(-9.06514e-37 -3.97602e-37 0)
(-1.05575e-37 -4.33953e-38 0)
(-1.1753e-38 -4.47896e-39 0)
(-1.23257e-39 -4.4494e-40 0)
(-1.24062e-40 -4.22527e-41 0)
(-1.19092e-41 -3.87348e-42 0)
(-1.10167e-42 -3.41833e-43 0)
(-9.86368e-44 -2.96497e-44 0)
(-1.55931e-44 -7.23428e-45 0)
(-7.06215e-44 -4.99692e-44 0)
(-6.50017e-43 -4.89828e-43 0)
(-5.67691e-42 -4.60473e-42 0)
(-4.68476e-41 -4.0768e-41 0)
(-3.54984e-40 -3.42033e-40 0)
(-2.50474e-39 -2.64585e-39 0)
(-1.54486e-38 -1.91582e-38 0)
(-8.62248e-38 -1.22345e-37 0)
(-3.63438e-37 -7.14552e-37 0)
(-1.24645e-36 -3.25382e-36 0)
(-4.69736e-37 -1.2803e-35 0)
(-7.28105e-32 8.19881e-32 0)
(-1.4317e-31 5.89031e-32 0)
(-5.5622e-32 1.32099e-31 0)
(-9.09309e-32 1.36419e-32 0)
(-3.34895e-32 -2.10289e-31 0)
(5.99892e-32 -5.3387e-32 0)
(9.55341e-33 1.24982e-31 0)
(-7.3647e-33 1.23808e-32 0)
(1.16539e-32 -7.68411e-32 0)
(4.32987e-32 -5.54549e-32 0)
(5.83125e-32 -1.80769e-32 0)
(6.08344e-32 -2.63242e-32 0)
(5.32856e-32 5.29269e-33 0)
(4.6714e-32 4.59606e-32 0)
(1.5265e-32 4.84691e-32 0)
(1.73217e-33 1.99442e-32 0)
(-7.26383e-33 3.78243e-32 0)
(-3.06374e-32 3.71955e-34 0)
(-8.95718e-33 -3.5441e-32 0)
(-6.03449e-33 -8.80819e-33 0)
(-1.38861e-33 -1.95666e-33 0)
(-3.06922e-34 -3.16621e-34 0)
(-5.11113e-35 -4.81366e-35 0)
(-8.00849e-36 -6.39016e-36 0)
(-1.0942e-36 -8.06737e-37 0)
(-1.41398e-37 -9.38072e-38 0)
(-1.67744e-38 -1.04261e-38 0)
(-1.89449e-39 -1.09185e-39 0)
(-2.01151e-40 -1.0976e-40 0)
(-2.04514e-41 -1.05249e-41 0)
(-1.98062e-42 -9.72667e-43 0)
(-1.85066e-43 -8.66569e-44 0)
(-2.19094e-44 -1.03063e-44 0)
(-5.70486e-44 -3.1785e-44 0)
(-5.46707e-43 -3.24141e-43 0)
(-5.13009e-42 -3.21651e-42 0)
(-4.53251e-41 -3.05408e-41 0)
(-3.79299e-40 -2.73685e-40 0)
(-2.92428e-39 -2.32884e-39 0)
(-2.10899e-38 -1.83354e-38 0)
(-1.33983e-37 -1.35461e-37 0)
(-7.78848e-37 -8.872e-37 0)
(-3.52833e-36 -5.3118e-36 0)
(-1.38559e-35 -2.48246e-35 0)
(-2.201e-35 -9.68532e-35 0)
(-8.27618e-31 5.4847e-31 0)
(-1.04397e-30 8.59749e-32 0)
(-1.57899e-31 2.24232e-32 0)
(-3.84314e-32 1.70685e-33 0)
(-6.8427e-33 -2.59568e-32 0)
(-1.13729e-33 -6.74478e-33 0)
(-2.52542e-34 1.52229e-32 0)
(1.60803e-33 1.58087e-33 0)
(1.34569e-33 -9.51828e-33 0)
(1.79828e-33 -7.04029e-33 0)
(2.95272e-33 -2.4847e-33 0)
(3.04052e-33 -3.45527e-33 0)
(2.06391e-33 6.21521e-34 0)
(2.04776e-33 5.74041e-33 0)
(1.0895e-33 6.10682e-33 0)
(2.12829e-34 2.6363e-33 0)
(-1.95971e-34 4.70274e-33 0)
(-8.88601e-34 5.39404e-35 0)
(-4.04568e-34 -4.37063e-33 0)
(-6.56548e-34 -1.1566e-33 0)
(-1.68695e-34 -2.70095e-34 0)
(-4.04184e-35 -4.56684e-35 0)
(-7.03918e-36 -7.18024e-36 0)
(-1.1416e-36 -9.80662e-37 0)
(-1.59897e-37 -1.26518e-37 0)
(-2.10734e-38 -1.49842e-38 0)
(-2.53911e-39 -1.68966e-39 0)
(-2.904e-40 -1.79167e-40 0)
(-3.11547e-41 -1.81953e-41 0)
(-3.19472e-42 -1.76038e-42 0)
(-3.11894e-43 -1.64036e-43 0)
(-3.2456e-44 -1.62089e-44 0)
(-3.76723e-44 -1.88402e-44 0)
(-3.64275e-43 -1.91531e-43 0)
(-3.60899e-42 -2.0083e-42 0)
(-3.42229e-41 -2.01387e-41 0)
(-3.06211e-40 -1.93559e-40 0)
(-2.60127e-39 -1.7597e-39 0)
(-2.0445e-38 -1.52364e-38 0)
(-1.50916e-37 -1.22524e-37 0)
(-9.9029e-37 -9.29154e-37 0)
(-5.99268e-36 -6.28542e-36 0)
(-2.90596e-35 -3.91458e-35 0)
(-1.25226e-34 -1.91926e-34 0)
(-2.8062e-34 -7.90651e-34 0)
(-5.07974e-32 6.67626e-31 0)
(-1.34008e-31 9.38424e-32 0)
(-2.8445e-32 -6.85785e-33 0)
(-6.8289e-33 -2.96691e-33 0)
(-1.19417e-33 -3.95078e-33 0)
(-5.79005e-34 -9.60606e-34 0)
(-1.09427e-34 1.87293e-33 0)
(2.8652e-34 1.9633e-34 0)
(1.40727e-34 -1.19298e-33 0)
(2.58544e-35 -8.98121e-34 0)
(1.13651e-34 -3.44452e-34 0)
(1.09532e-34 -5.15013e-34 0)
(1.45566e-36 6.01567e-35 0)
(4.08094e-35 7.1869e-34 0)
(7.59475e-35 7.72622e-34 0)
(2.32049e-35 3.41561e-34 0)
(1.51562e-35 5.91489e-34 0)
(4.06094e-35 7.54547e-36 0)
(-7.643e-36 -5.46433e-34 0)
(-6.56631e-35 -1.48975e-34 0)
(-1.82667e-35 -3.63721e-35 0)
(-4.61374e-36 -6.35807e-36 0)
(-8.31367e-37 -1.03003e-36 0)
(-1.38286e-37 -1.44004e-37 0)
(-1.9764e-38 -1.89389e-38 0)
(-2.64611e-39 -2.27794e-39 0)
(-3.23087e-40 -2.6013e-40 0)
(-3.73496e-41 -2.78721e-41 0)
(-4.0441e-42 -2.85499e-42 0)
(-4.18022e-43 -2.78263e-43 0)
(-4.27885e-44 -2.6619e-44 0)
(-2.37484e-44 -8.92404e-45 0)
(-2.16698e-43 -7.52567e-44 0)
(-2.26741e-42 -8.24848e-43 0)
(-2.2709e-41 -8.74192e-42 0)
(-2.17962e-40 -8.87636e-41 0)
(-1.97841e-39 -8.65452e-40 0)
(-1.71027e-38 -8.01308e-39 0)
(-1.37355e-37 -7.08572e-38 0)
(-1.04224e-36 -5.86041e-37 0)
(-7.09396e-36 -4.58844e-36 0)
(-4.51393e-35 -3.24604e-35 0)
(-2.36423e-34 -2.11844e-34 0)
(-1.14431e-33 -1.11441e-33 0)
(-3.37908e-33 -4.84682e-33 0)
(4.67916e-33 1.59572e-30 0)
(-1.58652e-32 2.30253e-31 0)
(-3.80468e-33 2.0811e-32 0)
(-1.19442e-33 1.16358e-33 0)
(-2.31195e-34 -3.77388e-34 0)
(-1.02034e-34 -1.09296e-34 0)
(-1.89122e-35 1.99618e-34 0)
(3.54219e-35 2.12838e-35 0)
(1.47705e-35 -1.29367e-34 0)
(-5.27676e-36 -9.90731e-35 0)
(2.60646e-36 -4.05953e-35 0)
(8.04867e-37 -6.18018e-35 0)
(-1.14692e-35 5.00785e-36 0)
(-4.70867e-36 7.79436e-35 0)
(5.89607e-36 8.45628e-35 0)
(2.49171e-36 3.83439e-35 0)
(3.49663e-36 6.43106e-35 0)
(1.09588e-35 8.99823e-37 0)
(1.03895e-36 -5.90727e-35 0)
(-6.71881e-36 -1.66479e-35 0)
(-1.95657e-36 -4.20137e-36 0)
(-5.1302e-37 -7.55385e-37 0)
(-9.4696e-38 -1.25222e-37 0)
(-1.60684e-38 -1.78503e-38 0)
(-2.33284e-39 -2.38427e-39 0)
(-3.16385e-40 -2.9059e-40 0)
(-3.90452e-41 -3.35412e-41 0)
(-4.55374e-42 -3.62725e-42 0)
(-4.96814e-43 -3.7442e-43 0)
(-5.22919e-44 -3.69232e-44 0)
(-1.26491e-44 -5.82562e-45 0)
(-8.64941e-44 -2.84134e-44 0)
(-9.44193e-43 -3.23323e-43 0)
(-9.9933e-42 -3.58815e-42 0)
(-1.01314e-40 -3.84451e-41 0)
(-9.86142e-40 -3.95193e-40 0)
(-9.11303e-39 -3.90699e-39 0)
(-8.04391e-38 -3.67593e-38 0)
(-6.64575e-37 -3.31205e-37 0)
(-5.21441e-36 -2.80153e-36 0)
(-3.73052e-35 -2.25636e-35 0)
(-2.52105e-34 -1.65398e-34 0)
(-1.46486e-33 -1.1363e-33 0)
(-8.0433e-33 -6.39181e-33 0)
(-3.18222e-32 -3.15394e-32 0)
(-7.29186e-32 1.07032e-30 0)
(2.32453e-32 1.59152e-31 0)
(3.45942e-33 1.91646e-32 0)
(2.85331e-34 1.96766e-33 0)
(-2.47379e-35 1.76518e-34 0)
(-2.17494e-35 1.4122e-35 0)
(-4.72681e-36 2.45033e-35 0)
(3.14608e-36 2.68002e-36 0)
(1.37369e-36 -1.3801e-35 0)
(-8.03955e-37 -1.07543e-35 0)
(-6.69561e-38 -4.70924e-36 0)
(-3.37178e-37 -7.54451e-36 0)
(-1.60143e-36 2.96171e-37 0)
(-8.15668e-37 8.3066e-36 0)
(4.84665e-37 9.10317e-36 0)
(2.47093e-37 4.19437e-36 0)
(4.20093e-37 6.89953e-36 0)
(1.31745e-36 1.03197e-37 0)
(1.75469e-37 -6.31025e-36 0)
(-6.44656e-37 -1.81455e-36 0)
(-1.9393e-37 -4.70429e-37 0)
(-5.21727e-38 -8.63771e-38 0)
(-9.81981e-39 -1.45896e-38 0)
(-1.69257e-39 -2.11178e-39 0)
(-2.49019e-40 -2.85689e-40 0)
(-3.41381e-41 -3.51919e-41 0)
(-4.25252e-42 -4.09802e-42 0)
(-4.99803e-43 -4.46502e-43 0)
(-5.51135e-44 -4.63903e-44 0)
(-8.50063e-45 -4.75305e-45 0)
(-3.33338e-44 -2.66727e-45 0)
(-3.76499e-43 -2.71159e-44 0)
(-4.17169e-42 -3.17394e-43 0)
(-4.46221e-41 -3.60305e-42 0)
(-4.57799e-40 -3.93808e-41 0)
(-4.51621e-39 -4.15699e-40 0)
(-4.2386e-38 -4.19736e-39 0)
(-3.80934e-37 -4.08396e-38 0)
(-3.2147e-36 -3.76641e-37 0)
(-2.58867e-35 -3.34952e-36 0)
(-1.90976e-34 -2.78608e-35 0)
(-1.34531e-33 -2.24728e-34 0)
(-8.18362e-33 -1.63496e-33 0)
(-4.87631e-32 -1.13249e-32 0)
(-2.05991e-31 -5.94082e-32 0)
(-1.35631e-31 -3.4617e-31 0)
(-1.07235e-31 -2.02833e-32 0)
(-2.34228e-32 2.00956e-32 0)
(-6.13467e-33 4.40464e-33 0)
(-1.08745e-33 8.54218e-34 0)
(-1.93576e-34 1.24029e-34 0)
(-2.87312e-35 1.94868e-35 0)
(-3.71611e-36 2.3809e-36 0)
(-3.83191e-37 -1.10204e-36 0)
(-1.4766e-37 -1.04185e-36 0)
(-1.94479e-38 -4.92266e-37 0)
(-4.84789e-38 -8.14883e-37 0)
(-1.7652e-37 7.96409e-39 0)
(-9.26951e-38 8.11846e-37 0)
(4.21648e-38 8.97945e-37 0)
(2.3799e-38 4.20489e-37 0)
(4.32871e-38 6.78148e-37 0)
(1.34612e-37 1.07526e-38 0)
(1.96181e-38 -6.17745e-37 0)
(-6.09814e-38 -1.81397e-37 0)
(-1.87119e-38 -4.80231e-38 0)
(-5.13132e-39 -8.97857e-39 0)
(-9.80015e-40 -1.53958e-39 0)
(-1.71047e-40 -2.25783e-40 0)
(-2.5432e-41 -3.08728e-41 0)
(-3.51728e-42 -3.83856e-42 0)
(-4.41467e-43 -4.50435e-43 0)
(-5.22313e-44 -4.94107e-44 0)
(-6.01584e-45 -5.19967e-45 0)
(-3.71408e-45 -1.0206e-45 0)
(-3.74949e-44 -6.49661e-45 0)
(-4.36164e-43 -7.94188e-44 0)
(-4.91708e-42 -9.46013e-43 0)
(-5.33909e-41 -1.09393e-41 0)
(-5.59066e-40 -1.2174e-40 0)
(-5.60284e-39 -1.31362e-39 0)
(-5.39461e-38 -1.35496e-38 0)
(-4.92315e-37 -1.35745e-37 0)
(-4.29907e-36 -1.29048e-36 0)
(-3.49633e-35 -1.20647e-35 0)
(-2.70542e-34 -1.06594e-34 0)
(-1.86821e-33 -9.53402e-34 0)
(-1.20423e-32 -7.8183e-33 0)
(-5.95139e-32 -6.36407e-32 0)
(-2.51141e-31 -3.85997e-31 0)
(-9.3683e-31 -3.81659e-32 0)
(-1.14727e-30 -8.16934e-33 0)
(-1.71516e-31 -7.94664e-34 0)
(-4.07201e-32 -4.50081e-35 0)
(-6.29846e-33 1.03575e-36 0)
(-1.04694e-33 5.54906e-37 0)
(-1.45301e-34 3.06483e-37 0)
(-1.98753e-35 3.49426e-38 0)
(-2.44885e-36 -1.2861e-37 0)
(-3.0183e-37 -1.03568e-37 0)
(-3.36636e-38 -5.06645e-38 0)
(-8.32969e-39 -8.65886e-38 0)
(-1.73811e-38 -1.66968e-39 0)
(-8.9774e-39 7.71866e-38 0)
(3.58718e-39 8.62135e-38 0)
(2.15622e-39 4.08496e-38 0)
(4.02285e-39 6.49853e-38 0)
(1.23561e-38 1.07696e-39 0)
(1.86854e-39 -5.90118e-38 0)
(-5.44574e-39 -1.75848e-38 0)
(-1.69983e-39 -4.73472e-39 0)
(-4.731e-40 -8.97642e-40 0)
(-9.15031e-41 -1.55813e-40 0)
(-1.6137e-41 -2.30899e-41 0)
(-2.42149e-42 -3.18494e-42 0)
(-3.37428e-43 -3.98993e-43 0)
(-4.26403e-44 -4.71148e-44 0)
(-5.13142e-45 -5.19358e-45 0)
(-1.35047e-45 -5.10822e-46 0)
(-9.94155e-45 3.86722e-46 0)
(-1.20436e-43 5.48296e-45 0)
(-1.42031e-42 6.62964e-44 0)
(-1.62364e-41 7.74678e-43 0)
(-1.78794e-40 8.7594e-42 0)
(-1.90401e-39 9.52674e-41 0)
(-1.94019e-38 9.96535e-40 0)
(-1.90841e-37 9.87385e-39 0)
(-1.7773e-36 9.15002e-38 0)
(-1.59737e-35 7.39303e-37 0)
(-1.33262e-34 4.3467e-36 0)
(-1.07603e-33 -5.89028e-36 0)
(-7.67821e-33 -7.06732e-34 0)
(-5.32765e-32 -1.3964e-32 0)
(-2.73925e-31 -1.78774e-31 0)
(-1.39144e-30 -1.60121e-30 0)
(-1.15096e-31 -9.17123e-32 0)
(-1.17923e-31 -3.60349e-32 0)
(-2.55919e-32 -2.52119e-32 0)
(-6.60347e-33 -4.75679e-33 0)
(-1.15543e-33 -8.72962e-34 0)
(-2.02667e-34 -1.24992e-34 0)
(-2.97931e-35 -1.72719e-35 0)
(-4.2203e-36 -2.13662e-36 0)
(-5.38444e-37 -2.66774e-37 0)
(-6.66373e-38 -3.77852e-38 0)
(-7.53655e-39 -7.87358e-39 0)
(-1.25797e-39 -8.79298e-39 0)
(-1.65311e-39 -3.88148e-40 0)
(-8.23039e-40 6.89538e-39 0)
(3.00666e-40 7.77699e-39 0)
(1.8903e-40 3.72767e-39 0)
(3.57088e-40 5.85113e-39 0)
(1.08579e-39 1.00837e-40 0)
(1.67229e-40 -5.298e-39 0)
(-4.73373e-40 -1.60197e-39 0)
(-1.4962e-40 -4.37272e-40 0)
(-4.21388e-41 -8.39226e-41 0)
(-8.23224e-42 -1.47165e-41 0)
(-1.46416e-42 -2.20079e-42 0)
(-2.21357e-43 -3.05852e-43 0)
(-3.10374e-44 -3.85716e-44 0)
(-3.94189e-45 -4.57896e-45 0)
(-4.52684e-46 -4.94483e-46 0)
(1.84071e-46 1.20304e-46 0)
(2.94532e-45 2.23988e-45 0)
(3.57376e-44 2.81677e-44 0)
(4.18624e-43 3.43328e-43 0)
(4.74827e-42 4.0493e-42 0)
(5.1841e-41 4.62811e-41 0)
(5.46493e-40 5.09131e-40 0)
(5.50716e-39 5.40365e-39 0)
(5.34314e-38 5.44969e-38 0)
(4.90225e-37 5.20315e-37 0)
(4.32007e-36 4.44759e-36 0)
(3.529e-35 3.10881e-35 0)
(2.76231e-34 8.11105e-35 0)
(1.90901e-33 -2.3191e-33 0)
(1.24923e-32 -6.08574e-32 0)
(6.06893e-32 -8.98392e-31 0)
(2.6183e-31 -9.76379e-30 0)
(-2.44502e-32 -5.9482e-31 0)
(-1.24127e-33 -8.97664e-32 0)
(-1.13334e-33 -1.25803e-32 0)
(-6.54059e-34 -1.55217e-33 0)
(-1.52065e-34 -2.12036e-34 0)
(-3.23566e-35 -2.78719e-35 0)
(-5.3126e-36 -3.75664e-36 0)
(-8.14968e-37 -4.71174e-37 0)
(-1.09879e-37 -5.82585e-38 0)
(-1.40694e-38 -7.33159e-39 0)
(-1.64357e-39 -1.15587e-39 0)
(-2.21351e-40 -8.81537e-40 0)
(-1.55675e-40 -5.8652e-41 0)
(-7.19089e-41 5.97069e-40 0)
(2.40586e-41 6.80478e-40 0)
(1.57771e-41 3.29176e-40 0)
(3.00535e-41 5.11504e-40 0)
(9.04749e-41 9.09207e-42 0)
(1.41172e-41 -4.62073e-40 0)
(-3.92355e-41 -1.41291e-40 0)
(-1.2549e-41 -3.89995e-41 0)
(-3.569e-42 -7.55854e-42 0)
(-7.03477e-43 -1.33657e-42 0)
(-1.26024e-43 -2.01364e-43 0)
(-1.91789e-44 -2.81575e-44 0)
(-2.70295e-45 -3.57043e-45 0)
(-3.35296e-46 -4.25885e-46 0)
(8.96148e-47 -4.75682e-47 0)
(1.68751e-45 -7.42574e-48 0)
(2.12204e-44 -3.1777e-47 0)
(2.58541e-43 -3.93027e-46 0)
(3.04798e-42 -4.79753e-45 0)
(3.48276e-41 -5.66635e-44 0)
(3.83286e-40 -6.48504e-43 0)
(4.07876e-39 -7.13777e-42 0)
(4.15232e-38 -7.56688e-41 0)
(4.07979e-37 -7.57779e-40 0)
(3.79395e-36 -7.07231e-39 0)
(3.40408e-35 -5.60515e-38 0)
(2.8335e-34 -2.85852e-37 0)
(2.28195e-33 1.96096e-36 0)
(1.62275e-32 8.74041e-35 0)
(1.12151e-31 1.67308e-33 0)
(5.73644e-31 2.25477e-32 0)
(2.89509e-30 2.2978e-31 0)
(1.37185e-32 -6.04978e-31 0)
(-7.98006e-33 -8.97414e-32 0)
(-1.53652e-33 -9.91597e-33 0)
(-3.8838e-34 -8.9866e-34 0)
(-6.42693e-35 -8.00899e-35 0)
(-1.09325e-35 -7.67253e-36 0)
(-1.5707e-36 -8.7491e-37 0)
(-2.19515e-37 -1.04789e-37 0)
(-2.77784e-38 -1.28608e-38 0)
(-3.38062e-39 -1.54707e-39 0)
(-3.82092e-40 -2.03442e-40 0)
(-4.46637e-41 -8.98313e-41 0)
(-1.57693e-41 -7.65405e-42 0)
(-6.24111e-42 4.91822e-41 0)
(1.85493e-42 5.67067e-41 0)
(1.2737e-42 2.76781e-41 0)
(2.44666e-42 4.25957e-41 0)
(7.30705e-42 7.78353e-43 0)
(1.15101e-42 -3.83975e-41 0)
(-3.15872e-42 -1.18693e-41 0)
(-1.01998e-42 -3.30673e-42 0)
(-2.92432e-43 -6.46495e-43 0)
(-5.80645e-44 -1.15134e-43 0)
(-1.04642e-44 -1.74598e-44 0)
(-1.60122e-45 -2.45456e-45 0)
(-2.26647e-46 -3.12821e-46 0)
(-2.78706e-47 -3.84186e-47 0)
(1.22383e-47 -1.73438e-47 0)
(2.01615e-46 -1.75128e-46 0)
(2.5169e-45 -2.2573e-45 0)
(3.04422e-44 -2.83235e-44 0)
(3.56088e-43 -3.45277e-43 0)
(4.03244e-42 -4.07291e-42 0)
(4.39504e-41 -4.65586e-41 0)
(4.62369e-40 -5.12252e-40 0)
(4.64942e-39 -5.43735e-39 0)
(4.4988e-38 -5.48321e-38 0)
(4.11598e-37 -5.23247e-37 0)
(3.61331e-36 -4.46372e-36 0)
(2.94014e-35 -3.09791e-35 0)
(2.28742e-34 -7.50262e-35 0)
(1.57135e-33 2.45288e-33 0)
(1.01601e-32 6.30481e-32 0)
(4.87986e-32 9.26191e-31 0)
(2.02322e-31 1.00347e-29 0)
(-1.13872e-33 -1.38856e-31 0)
(5.58024e-34 -2.99485e-32 0)
(9.75954e-35 -3.97537e-33 0)
(1.19992e-35 -3.94086e-34 0)
(3.76936e-37 -3.62872e-35 0)
(-2.10837e-37 -3.31168e-36 0)
(-6.13029e-38 -3.39129e-37 0)
(-1.22086e-38 -3.64197e-38 0)
(-1.91548e-39 -4.06925e-39 0)
(-2.70358e-40 -4.45005e-40 0)
(-3.40236e-41 -4.96703e-41 0)
(-4.26603e-42 -1.0986e-41 0)
(-1.36911e-42 -1.07319e-42 0)
(-5.10017e-43 3.90775e-42 0)
(1.37768e-43 4.58154e-42 0)
(9.87827e-44 2.25389e-42 0)
(1.91223e-43 3.44234e-42 0)
(5.66781e-43 6.43353e-44 0)
(9.00512e-44 -3.09761e-42 0)
(-2.44403e-43 -9.66005e-43 0)
(-7.96432e-44 -2.71196e-43 0)
(-2.29898e-44 -5.34033e-44 0)
(-4.59492e-45 -9.56675e-45 0)
(-8.32348e-46 -1.45865e-45 0)
(-1.28009e-46 -2.05973e-46 0)
(-1.85357e-47 -2.63611e-47 0)
(-7.01067e-48 -3.32592e-48 0)
(-6.22738e-47 -2.52637e-48 0)
(-8.01166e-46 -2.87132e-47 0)
(-1.00537e-44 -3.68431e-46 0)
(-1.22582e-43 -4.59469e-45 0)
(-1.44638e-42 -5.56282e-44 0)
(-1.65433e-41 -6.51344e-43 0)
(-1.82265e-40 -7.38151e-42 0)
(-1.9421e-39 -8.04192e-41 0)
(-1.98e-38 -8.42472e-40 0)
(-1.94881e-37 -8.33773e-39 0)
(-1.81583e-36 -7.67732e-38 0)
(-1.63316e-35 -6.03319e-37 0)
(-1.36308e-34 -3.12151e-36 0)
(-1.10147e-33 1.68203e-35 0)
(-7.86173e-33 8.06022e-34 0)
(-5.45881e-32 1.48639e-32 0)
(-2.80549e-31 1.86545e-31 0)
(-1.42537e-30 1.65572e-30 0)
(-1.52447e-32 -6.37309e-31 0)
(7.93308e-33 -9.38756e-32 0)
(1.4246e-33 -9.70205e-33 0)
(2.98296e-34 -7.68966e-34 0)
(4.15383e-35 -4.70299e-35 0)
(5.85183e-36 -2.11145e-36 0)
(7.06905e-37 -3.02131e-38 0)
(8.38399e-38 7.16871e-39 0)
(9.11931e-39 1.24889e-39 0)
(9.62704e-40 1.45659e-40 0)
(9.56779e-41 1.48883e-41 0)
(9.17905e-42 9.34977e-43 0)
(7.70667e-43 7.58592e-44 0)
(3.88963e-44 3.15693e-43 0)
(1.67603e-44 3.57102e-43 0)
(8.0024e-45 1.76385e-43 0)
(1.45457e-44 2.67273e-43 0)
(4.27111e-44 5.09787e-45 0)
(6.8346e-45 -2.40111e-43 0)
(-1.83792e-44 -7.55149e-44 0)
(-6.03566e-45 -2.13377e-44 0)
(-1.75214e-45 -4.22894e-45 0)
(-3.52141e-46 -7.61421e-46 0)
(-6.40624e-47 -1.16654e-46 0)
(-9.89696e-48 -1.65344e-47 0)
(-1.49948e-48 -2.10092e-48 0)
(-1.38948e-48 5.15875e-50 0)
(-1.59679e-47 4.16324e-48 0)
(-2.0492e-46 5.56615e-47 0)
(-2.55617e-45 7.19697e-46 0)
(-3.0958e-44 9.03627e-45 0)
(-3.62663e-43 1.10238e-43 0)
(-4.11405e-42 1.30156e-42 0)
(-4.49279e-41 1.48979e-41 0)
(-4.73753e-40 1.64286e-40 0)
(-4.77645e-39 1.75275e-39 0)
(-4.63656e-38 1.79077e-38 0)
(-4.25753e-37 1.76986e-37 0)
(-3.75484e-36 1.66404e-36 0)
(-3.07136e-35 1.52562e-35 0)
(-2.40616e-34 1.32553e-34 0)
(-1.66574e-33 1.14812e-33 0)
(-1.08923e-32 9.18724e-33 0)
(-5.29458e-32 7.18234e-32 0)
(-2.2544e-31 4.28016e-31 0)
(1.83529e-32 -6.26154e-31 0)
(-9.59639e-33 -9.1454e-32 0)
(-1.83116e-33 -9.19185e-33 0)
(-4.05393e-34 -6.92426e-34 0)
(-5.99928e-35 -3.50427e-35 0)
(-8.9971e-36 -4.5192e-37 0)
(-1.16108e-36 1.97568e-37 0)
(-1.47106e-37 3.5798e-38 0)
(-1.71156e-38 4.71708e-39 0)
(-1.93091e-39 5.38518e-40 0)
(-2.05123e-40 5.77615e-41 0)
(-2.10599e-41 5.80531e-42 0)
(-2.0674e-42 5.63929e-43 0)
(-1.97885e-43 7.57692e-44 0)
(-1.70299e-44 3.1637e-44 0)
(-1.02135e-45 1.37934e-44 0)
(9.29022e-46 2.01924e-44 0)
(3.09846e-45 3.9386e-46 0)
(5.00093e-46 -1.80845e-44 0)
(-1.33582e-45 -5.72843e-45 0)
(-4.41897e-46 -1.62738e-45 0)
(-1.289e-46 -3.24286e-46 0)
(-2.60355e-47 -5.86343e-47 0)
(-4.75392e-48 -9.01935e-48 0)
(-7.36813e-49 -1.28189e-48 0)
(-1.0812e-49 -1.55073e-49 0)
(-5.09796e-50 1.20332e-49 0)
(-4.89327e-49 1.90273e-48 0)
(-6.18434e-48 2.5184e-47 0)
(-7.59715e-47 3.24055e-46 0)
(-9.03749e-46 4.04837e-45 0)
(-1.03706e-44 4.91158e-44 0)
(-1.14797e-43 5.76545e-43 0)
(-1.21845e-42 6.55592e-42 0)
(-1.24145e-41 7.17965e-41 0)
(-1.20197e-40 7.5966e-40 0)
(-1.10977e-39 7.69205e-39 0)
(-9.59294e-39 7.51016e-38 0)
(-7.83214e-38 6.95645e-37 0)
(-5.8202e-37 6.22123e-36 0)
(-4.01999e-36 5.21387e-35 0)
(-2.36857e-35 4.24627e-34 0)
(-1.25478e-34 3.12822e-33 0)
(-4.61824e-34 2.19419e-32 0)
(-1.3948e-33 1.16741e-31 0)
(1.84464e-32 -8.25464e-32 0)
(-1.05985e-32 -1.7085e-32 0)
(-2.14951e-33 -1.60557e-33 0)
(-5.42709e-34 -4.60455e-35 0)
(-8.9837e-35 1.91681e-35 0)
(-1.5109e-35 4.69511e-36 0)
(-2.15113e-36 8.10481e-37 0)
(-2.97502e-37 1.13537e-37 0)
(-3.73266e-38 1.46615e-38 0)
(-4.4984e-39 1.72995e-39 0)
(-5.06302e-40 1.93784e-40 0)
(-5.46999e-41 2.04243e-41 0)
(-5.60503e-42 2.06157e-42 0)
(-5.5278e-43 2.00099e-43 0)
(-5.21047e-44 2.03433e-44 0)
(-4.71308e-45 2.61744e-45 0)
(-3.41358e-46 1.60976e-45 0)
(1.84847e-46 4.06404e-47 0)
(3.27861e-47 -1.31528e-45 0)
(-9.47131e-47 -4.1969e-46 0)
(-3.1475e-47 -1.1979e-46 0)
(-9.2142e-48 -2.39882e-47 0)
(-1.86887e-48 -4.35312e-48 0)
(-3.41956e-49 -6.71942e-49 0)
(-4.84563e-50 -9.4721e-50 0)
(5.84416e-50 3.53652e-51 0)
(8.96805e-49 2.21513e-49 0)
(1.18786e-47 3.05035e-48 0)
(1.53002e-46 4.06383e-47 0)
(1.91372e-45 5.27285e-46 0)
(2.32511e-44 6.64563e-45 0)
(2.73394e-43 8.1418e-44 0)
(3.11503e-42 9.65677e-43 0)
(3.41933e-41 1.11108e-41 0)
(3.6276e-40 1.23213e-40 0)
(3.68373e-39 1.32325e-39 0)
(3.60649e-38 1.36186e-38 0)
(3.34561e-37 1.35856e-37 0)
(2.98662e-36 1.29178e-36 0)
(2.47913e-35 1.20394e-35 0)
(1.97544e-34 1.06928e-34 0)
(1.3959e-33 9.55912e-34 0)
(9.32172e-33 7.93887e-33 0)
(4.64904e-32 6.45388e-32 0)
(2.01488e-31 3.98301e-31 0)
(-1.98929e-32 -5.39963e-32 0)
(-6.37641e-33 -8.3376e-33 0)
(-2.49021e-33 3.2069e-33 0)
(-1.04735e-33 9.47768e-34 0)
(-2.23232e-34 2.04628e-34 0)
(-4.49814e-35 3.20877e-35 0)
(-7.17271e-36 4.63884e-36 0)
(-1.07814e-36 5.93737e-37 0)
(-1.43433e-37 7.23379e-38 0)
(-1.8089e-38 8.19362e-39 0)
(-2.10751e-39 8.89574e-40 0)
(-2.34171e-40 9.14873e-41 0)
(-2.45402e-41 9.05163e-42 0)
(-2.46584e-42 8.5703e-43 0)
(-2.36441e-43 7.84427e-44 0)
(-2.1835e-44 6.96101e-45 0)
(-1.93388e-45 6.91319e-46 0)
(-1.51336e-46 5.04845e-47 0)
(-1.13447e-47 -8.93408e-47 0)
(-7.59585e-48 -2.96034e-47 0)
(-2.25889e-48 -8.54418e-48 0)
(-6.4491e-49 -1.72099e-48 0)
(-1.30387e-49 -3.13451e-49 0)
(-2.26945e-50 -4.87638e-50 0)
(1.36659e-50 -1.01712e-50 0)
(2.43226e-49 -4.71238e-50 0)
(3.33414e-48 -6.45017e-49 0)
(4.4415e-47 -8.77501e-48 0)
(5.76257e-46 -1.16238e-46 0)
(7.26237e-45 -1.49884e-45 0)
(8.89679e-44 -1.8765e-44 0)
(1.05512e-42 -2.2819e-43 0)
(1.21382e-41 -2.68483e-42 0)
(1.34567e-40 -3.06059e-41 0)
(1.44427e-39 -3.35904e-40 0)
(1.48394e-38 -3.55996e-39 0)
(1.47426e-37 -3.59968e-38 0)
(1.38735e-36 -3.48499e-37 0)
(1.2635e-35 -3.13235e-36 0)
(1.06835e-34 -2.58499e-35 0)
(8.78747e-34 -1.73191e-34 0)
(6.38282e-33 -7.30773e-34 0)
(4.55572e-32 3.8911e-33 0)
(2.39981e-31 1.11927e-31 0)
(1.28731e-30 1.29331e-30 0)
(-8.5264e-32 -4.78591e-31 0)
(-1.68809e-31 -3.69321e-32 0)
(-3.61561e-32 2.27522e-32 0)
(-9.1189e-33 5.18996e-33 0)
(-1.56197e-33 1.02773e-33 0)
(-2.68837e-34 1.50664e-34 0)
(-3.89731e-35 2.10168e-35 0)
(-5.46285e-36 2.60476e-36 0)
(-6.91945e-37 3.10602e-37 0)
(-8.40409e-38 3.44863e-38 0)
(-9.51383e-39 3.68782e-39 0)
(-1.03318e-39 3.73979e-40 0)
(-1.06304e-40 3.65795e-41 0)
(-1.05225e-41 3.42649e-42 0)
(-9.96563e-43 3.10307e-43 0)
(-9.10976e-44 2.70859e-44 0)
(-8.01918e-45 2.29786e-45 0)
(-6.82491e-46 1.87712e-46 0)
(-5.6194e-47 8.51619e-48 0)
(-4.94544e-48 -9.13475e-49 0)
(-4.9672e-49 -5.07148e-49 0)
(-6.95864e-50 -1.13518e-49 0)
(-1.09703e-50 -2.14512e-50 0)
(-5.00225e-51 -3.81939e-51 0)
(-4.66341e-50 -7.15583e-51 0)
(-6.46893e-49 -9.56656e-50 0)
(-8.80017e-48 -1.33675e-48 0)
(-1.16549e-46 -1.82323e-47 0)
(-1.50251e-45 -2.42131e-46 0)
(-1.88058e-44 -3.13089e-45 0)
(-2.28615e-43 -3.93141e-44 0)
(-2.68887e-42 -4.79655e-43 0)
(-3.06424e-41 -5.6633e-42 0)
(-3.36266e-40 -6.48145e-41 0)
(-3.56642e-39 -7.14257e-40 0)
(-3.61781e-38 -7.60322e-39 0)
(-3.53905e-37 -7.71418e-38 0)
(-3.27597e-36 -7.47399e-37 0)
(-2.92143e-35 -6.64564e-36 0)
(-2.41666e-34 -5.24457e-35 0)
(-1.92814e-33 -2.871e-34 0)
(-1.35875e-32 2.54973e-34 0)
(-9.2312e-32 4.13315e-32 0)
(-4.6498e-31 7.3134e-31 0)
(-2.24516e-30 8.83092e-30 0)
(-1.04793e-30 7.70919e-31 0)
(-1.41445e-30 1.17995e-31 0)
(-2.13362e-31 1.24268e-32 0)
(-5.05104e-32 9.96153e-34 0)
(-7.79886e-33 6.1511e-35 0)
(-1.29124e-33 2.79823e-36 0)
(-1.7872e-34 4.45921e-38 0)
(-2.4423e-35 -8.81546e-39 0)
(-3.01363e-36 -1.57026e-39 0)
(-3.59641e-37 -1.83958e-40 0)
(-4.00272e-38 -1.9034e-41 0)
(-4.29146e-39 -1.82502e-42 0)
(-4.36255e-40 -1.67658e-43 0)
(-4.27626e-41 -1.47677e-44 0)
(-4.0133e-42 -1.25908e-45 0)
(-3.64044e-43 -1.03539e-46 0)
(-3.18186e-44 -7.83825e-48 0)
(-2.69487e-45 -6.36743e-49 0)
(-2.20913e-46 -4.77819e-49 0)
(-1.76211e-47 -1.42668e-49 0)
(-1.37011e-48 -4.0334e-50 0)
(-1.05285e-49 -8.132e-51 0)
(-8.50871e-51 -1.4639e-51 0)
(-6.81188e-51 9.08179e-53 0)
(-8.83783e-50 4.68141e-51 0)
(-1.234e-48 6.74691e-50 0)
(-1.68162e-47 9.42178e-49 0)
(-2.23115e-46 1.28322e-47 0)
(-2.88201e-45 1.70156e-46 0)
(-3.61482e-44 2.19652e-45 0)
(-4.40479e-43 2.75319e-44 0)
(-5.19384e-42 3.35225e-43 0)
(-5.936e-41 3.94915e-42 0)
(-6.53429e-40 4.50707e-41 0)
(-6.95551e-39 4.94813e-40 0)
(-7.08325e-38 5.23243e-39 0)
(-6.96228e-37 5.2349e-38 0)
(-6.4774e-36 4.89583e-37 0)
(-5.81502e-35 3.93939e-36 0)
(-4.8434e-34 2.17825e-35 0)
(-3.90382e-33 -8.76062e-35 0)
(-2.77862e-32 -5.13948e-33 0)
(-1.92268e-31 -1.01524e-31 0)
(-9.84685e-31 -1.381e-30 0)
(-4.97931e-30 -1.4136e-29 0)
(-1.09035e-31 1.96956e-30 0)
(-1.56428e-31 2.61893e-31 0)
(-3.37299e-32 9.47201e-34 0)
(-8.59022e-33 -3.27631e-33 0)
(-1.48486e-33 -9.05891e-34 0)
(-2.57605e-34 -1.44588e-34 0)
(-3.7566e-35 -2.08297e-35 0)
(-5.29064e-36 -2.60958e-36 0)
(-6.72589e-37 -3.1227e-37 0)
(-8.19341e-38 -3.47007e-38 0)
(-9.2978e-39 -3.71062e-39 0)
(-1.01177e-39 -3.76186e-40 0)
(-1.04279e-40 -3.67831e-41 0)
(-1.03372e-41 -3.44445e-42 0)
(-9.80261e-43 -3.11832e-43 0)
(-8.97072e-44 -2.72077e-44 0)
(-7.90485e-45 -2.30082e-45 0)
(-6.74313e-46 -1.88357e-46 0)
(-5.56451e-47 -1.50088e-47 0)
(-4.45938e-48 -1.16636e-48 0)
(-3.47245e-49 -8.96691e-50 0)
(-2.64004e-50 -6.90566e-51 0)
(-1.8345e-51 -5.03424e-52 0)
(1.8254e-51 7.01052e-52 0)
(2.82253e-50 1.0963e-50 0)
(3.94697e-49 1.57101e-49 0)
(5.3819e-48 2.19578e-48 0)
(7.1453e-47 2.99364e-47 0)
(9.23653e-46 3.97386e-46 0)
(1.15946e-44 5.13588e-45 0)
(1.41417e-43 6.4456e-44 0)
(1.66924e-42 7.85918e-43 0)
(1.91006e-41 9.27285e-42 0)
(2.10539e-40 1.06025e-40 0)
(2.24461e-39 1.16669e-39 0)
(2.28983e-38 1.23823e-38 0)
(2.2554e-37 1.24733e-37 0)
(2.10321e-36 1.18581e-36 0)
(1.89347e-35 9.993e-36 0)
(1.58206e-34 6.63707e-35 0)
(1.28007e-33 8.44659e-35 0)
(9.14922e-33 -7.10148e-33 0)
(6.36251e-32 -1.65753e-31 0)
(3.27498e-31 -2.36824e-30 0)
(1.6661e-30 -2.50986e-29 0)
(-4.66108e-32 9.09173e-31 0)
(7.53983e-33 1.44507e-31 0)
(3.12558e-34 1.16367e-32 0)
(-4.30474e-34 2.86309e-34 0)
(-1.32291e-34 -1.21848e-34 0)
(-3.16564e-35 -2.74632e-35 0)
(-5.49354e-36 -4.4239e-36 0)
(-8.71824e-37 -5.85975e-37 0)
(-1.20157e-37 -7.22211e-38 0)
(-1.55486e-38 -8.20927e-39 0)
(-1.84634e-39 -8.92107e-40 0)
(-2.08237e-40 -9.17588e-41 0)
(-2.20829e-41 -9.07745e-42 0)
(-2.24066e-42 -8.59213e-43 0)
(-2.166e-43 -7.85009e-44 0)
(-2.0143e-44 -6.90743e-45 0)
(-1.79919e-45 -5.88483e-46 0)
(-1.55256e-46 -4.85082e-47 0)
(-1.29388e-47 -3.88372e-48 0)
(-1.0454e-48 -3.02184e-49 0)
(-8.19168e-50 -2.29714e-50 0)
(-6.21896e-51 -1.71365e-51 0)
(-5.74052e-53 -1.43346e-52 0)
(5.92767e-51 -2.58647e-52 0)
(8.53871e-50 -3.65575e-51 0)
(1.19341e-48 -5.23731e-50 0)
(1.62695e-47 -7.32273e-49 0)
(2.15955e-46 -9.98757e-48 0)
(2.79088e-45 -1.32639e-46 0)
(3.5024e-44 -1.71515e-45 0)
(4.27041e-43 -2.15383e-44 0)
(5.03881e-42 -2.62808e-43 0)