/*--------------------------------*- C++ -*----------------------------------*\
| =========                 |                                                 |
| \\      /  F ield         | OpenFOAM: The Open Source CFD Toolbox           |
|  \\    /   O peration     | Version:  2.4.0                                 |
|   \\  /    A nd           | Web:      www.OpenFOAM.org                      |
|    \\/     M anipulation  |                                                 |
\*---------------------------------------------------------------------------*/
FoamFile
{
    version     2.0;
    format      ascii;
    class       surfaceScalarField;
    location    "0.55";
    object      phi;
}
// * * * * * * * * * * * * * * * * * * * * * * * * * * * * * * * * * * * * * //

dimensions      [0 3 -1 0 0 0 0];

internalField   nonuniform List<scalar> 
3782
(
-6.4692e-40
9.28418e-38
-7.44842e-40
1.24606e-38
-1.89129e-40
2.05388e-39
-8.96163e-40
2.18484e-40
-1.0443e-38
-1.24622e-40
-9.0109e-38
-1.04719e-38
-9.39929e-37
-2.94087e-37
-4.33426e-36
-5.93911e-36
-4.26671e-35
-1.53735e-34
-2.26948e-34
-1.99974e-36
-1.35016e-34
3.83897e-35
-1.04492e-32
-4.89551e-36
1.06672e-32
-7.94343e-35
1.48471e-34
-3.28828e-36
2.34155e-34
3.96099e-35
4.79959e-35
4.03867e-36
4.85419e-35
-1.07155e-38
2.07307e-34
-3.84232e-36
-1.6657e-34
-3.92697e-35
1.15796e-32
5.63791e-35
-2.49971e-32
1.37138e-34
-4.37434e-34
-4.64172e-35
-7.65309e-34
-1.38494e-34
1.23002e-32
4.92595e-35
-2.64027e-32
1.40291e-34
-4.69993e-34
-9.57546e-35
1.31475e-32
-1.02139e-34
-1.36282e-32
3.95935e-35
1.36806e-32
6.26505e-37
-1.43991e-32
-1.67081e-34
-2.50536e-34
-9.23173e-36
-3.13676e-34
-5.34969e-35
-5.89334e-35
-5.47804e-36
-6.01459e-36
-7.48939e-37
-5.80647e-36
-2.70391e-40
-5.87804e-35
7.55265e-37
-2.7305e-34
5.13391e-36
2.16864e-34
5.18012e-35
-1.52579e-32
-7.38272e-35
3.2868e-32
-1.81037e-34
8.6454e-34
5.51866e-35
7.90991e-34
1.26531e-34
1.24285e-35
8.46399e-37
-6.58382e-39
6.16177e-36
-5.77414e-38
5.22617e-35
-5.25518e-37
-3.38437e-36
2.61707e-34
1.07974e-37
-7.48776e-39
7.59602e-37
-6.55035e-38
5.7915e-36
-5.9223e-37
-3.79669e-36
2.76156e-35
1.6661e-38
-1.01655e-39
1.03821e-37
-8.99732e-39
6.81141e-37
-7.72594e-38
-4.72561e-37
2.15197e-36
1.60447e-39
3.31516e-40
9.35241e-39
-7.80124e-40
5.49866e-38
-1.14619e-38
-6.5813e-38
1.2958e-37
2.06144e-41
5.74486e-39
7.63345e-40
7.16784e-39
5.01123e-39
1.56264e-40
-5.94125e-39
8.89325e-39
-6.66194e-39
4.19265e-38
-2.46882e-39
5.48426e-38
-6.6004e-40
9.15382e-39
8.9514e-40
4.00524e-40
-1.75451e-37
3.84104e-37
-4.29018e-38
5.05739e-37
-1.31263e-38
7.43656e-38
1.15059e-38
-2.06125e-39
-3.39025e-36
-1.83189e-37
-5.58841e-37
3.74513e-37
-1.13173e-37
5.69008e-38
9.17451e-39
-1.55763e-38
-7.19229e-36
-6.2697e-36
-5.29986e-36
-1.29303e-36
-1.01748e-36
-1.52155e-37
-1.95026e-38
-1.26117e-37
9.8185e-37
-3.00485e-35
1.6749e-37
-3.20569e-36
2.8734e-39
-2.61249e-37
-2.38364e-38
-1.51533e-39
4.18187e-35
-2.54735e-34
5.98205e-36
-1.74489e-35
9.09902e-37
-8.8394e-37
-2.68566e-38
1.03692e-37
-5.41245e-36
-2.25382e-34
-8.84533e-37
-1.51004e-35
-1.41722e-37
-7.46922e-37
-2.07941e-38
-1.71688e-38
-8.62738e-35
2.41094e-34
-1.24217e-35
1.62064e-35
-1.90805e-36
8.05294e-37
2.2838e-38
-2.19253e-37
-3.66964e-36
2.61023e-34
-6.30072e-37
1.78716e-35
-1.01881e-37
9.02627e-37
2.67219e-38
-1.25085e-38
4.30041e-35
3.04937e-35
6.17466e-36
2.78867e-36
9.46291e-37
1.9428e-37
1.29288e-38
1.08503e-37
4.48257e-36
6.58758e-36
7.44939e-37
9.35885e-37
1.191e-37
9.68979e-38
1.04829e-38
1.44405e-38
-1.11545e-38
6.57014e-36
-1.09601e-39
9.18504e-37
-7.41153e-41
9.36281e-38
1.00148e-38
4.84884e-42
-4.25783e-36
2.65732e-35
-7.00624e-37
2.02075e-36
-1.09929e-37
1.01682e-37
1.77933e-39
-1.31562e-38
-4.24914e-35
2.51648e-34
-5.95263e-36
1.58327e-35
-9.03092e-37
6.78472e-37
2.70757e-39
-1.02248e-37
6.14618e-35
-8.0636e-35
9.08551e-36
-7.18389e-36
1.4072e-36
-4.91395e-37
-3.19231e-38
1.63541e-37
1.48927e-34
-8.8386e-34
2.14226e-35
-6.0686e-35
3.28826e-36
-3.10411e-36
-9.91585e-38
3.77593e-37
-5.03935e-35
-6.14399e-34
-7.23438e-36
-4.3177e-35
-1.10815e-36
-2.29624e-36
-8.58138e-38
-1.27009e-37
-1.50348e-34
1.91688e-34
-2.15735e-35
9.54344e-36
-3.30563e-36
1.81367e-37
-3.71167e-38
-3.78932e-37
5.34739e-35
-9.2891e-35
7.67094e-36
-8.70486e-36
1.17392e-36
-6.35924e-37
-4.64393e-38
1.34452e-37
1.522e-34
-9.10936e-34
2.17364e-35
-6.22318e-35
3.32673e-36
-3.17465e-36
-1.01472e-37
3.80628e-37
-1.03882e-34
-3.4878e-34
-1.48353e-35
-2.47945e-35
-2.27312e-36
-1.32381e-36
-4.88502e-38
-2.60284e-37
-1.11028e-34
2.48989e-34
-1.60933e-35
1.52771e-35
-2.47641e-36
6.35957e-37
8.75843e-40
-2.85346e-37
4.2969e-35
1.56229e-35
5.91263e-36
9.67695e-37
8.86573e-37
1.66056e-38
-3.08772e-39
9.9084e-38
5.27943e-36
-3.47955e-35
8.74292e-37
-2.3316e-36
1.02285e-37
-9.20238e-38
4.98503e-39
9.48153e-39
4.77637e-35
-3.56714e-34
7.48644e-37
-2.55612e-35
-1.77958e-37
-1.40586e-36
-6.17065e-38
-3.37845e-38
-5.63534e-36
-3.5319e-34
-9.12156e-37
-2.54315e-35
-1.79405e-37
-1.41176e-36
-6.40214e-38
-2.43133e-38
-5.78984e-35
-4.10282e-35
-8.36316e-36
-3.86895e-36
-1.29408e-36
-2.8193e-37
-2.06162e-38
-1.49562e-37
-6.07559e-36
-8.03554e-36
-1.01435e-36
-1.14432e-36
-1.63651e-37
-1.18539e-37
-1.29105e-38
-1.9984e-38
-8.37418e-37
-9.2565e-37
-1.45706e-37
-1.50343e-37
-2.53997e-38
-1.73878e-38
-2.03848e-39
-3.24993e-39
-3.76489e-40
-8.8838e-37
-1.41032e-40
-1.408e-37
-4.97174e-41
-1.60179e-38
-1.84462e-39
-8.88415e-42
8.43319e-37
-7.86396e-36
1.45306e-37
-1.08426e-36
2.50592e-38
-1.09013e-37
-1.15408e-38
3.17625e-39
5.69058e-36
-3.49846e-35
9.37905e-37
-2.65425e-36
1.47506e-37
-1.32728e-37
-2.17128e-39
1.76872e-38
5.60528e-35
-3.3192e-34
7.85412e-36
-2.0886e-35
1.19168e-36
-8.94894e-37
-3.52643e-39
1.34936e-37
-8.04865e-35
1.03518e-34
-1.19016e-35
9.33835e-36
-1.84378e-36
6.47958e-37
4.31441e-38
-2.14327e-37
-1.96625e-34
1.16665e-33
-2.83098e-35
8.06758e-35
-4.3484e-36
4.1831e-36
1.42134e-37
-4.99654e-37
5.97883e-35
8.4365e-34
8.4529e-36
5.95141e-35
1.2906e-36
3.15822e-36
1.15364e-37
1.47076e-37
1.37546e-34
1.03773e-34
1.99296e-35
9.95638e-36
3.06623e-36
7.36693e-37
5.42812e-38
3.53229e-37
1.38042e-35
2.31121e-36
3.73151e-37
4.56446e-38
3.53682e-34
-2.89756e-35
9.31272e-33
-2.2948e-35
4.9634e-36
5.58477e-35
-9.26349e-33
5.5411e-35
-7.54135e-35
-2.64289e-35
1.28979e-34
-5.8446e-35
9.53632e-33
-2.98591e-35
3.91349e-34
2.59515e-35
2.71612e-34
2.94188e-35
4.85556e-35
3.47122e-36
4.93567e-36
4.8169e-37
5.02034e-37
4.63441e-38
-1.10736e-36
1.35442e-38
-9.28206e-36
8.69632e-38
-9.22165e-35
9.18045e-37
-4.95211e-34
6.46499e-36
-5.15319e-34
5.54066e-35
-1.87238e-32
2.29117e-35
9.0641e-33
-8.27626e-35
2.48616e-34
-6.19604e-35
9.76385e-33
-3.79403e-36
4.83198e-34
3.13302e-35
5.48533e-34
3.09256e-35
4.45759e-34
-2.30801e-35
9.58932e-33
-2.57677e-35
3.96506e-34
2.66429e-35
2.7233e-34
3.21723e-35
4.94692e-35
5.1505e-36
6.21289e-36
-1.20228e-36
1.01137e-35
-2.74845e-36
9.67832e-35
-1.10363e-36
5.41011e-34
-6.62386e-36
7.52929e-34
-5.32557e-35
1.89833e-32
7.29635e-35
8.42622e-34
8.17745e-35
-8.79223e-33
3.65493e-35
1.80775e-32
-8.85392e-36
-1.86344e-32
7.99324e-35
-4.76154e-34
6.99033e-37
-4.7634e-35
2.04801e-34
-3.20209e-35
3.43567e-34
-2.5261e-35
6.12348e-37
6.16871e-35
-3.38106e-34
6.11952e-35
-1.75912e-34
-2.9167e-35
1.81905e-34
-6.45993e-35
3.66968e-34
-3.30158e-35
2.09475e-34
2.86292e-35
2.87073e-35
3.25199e-35
5.3745e-36
3.89524e-36
6.08789e-37
5.42794e-37
6.31911e-38
5.25848e-38
-1.40211e-37
1.54061e-38
-1.14275e-36
9.86523e-38
-1.01457e-35
1.03415e-36
-5.21086e-35
7.25252e-36
-3.90761e-34
6.11902e-35
-5.29084e-34
2.52196e-35
-1.91002e-35
-9.14019e-35
3.62612e-34
-6.855e-35
3.90449e-34
-4.41814e-36
2.19214e-34
3.17968e-35
5.84298e-35
3.21803e-35
2.1597e-34
-2.82706e-35
3.72897e-34
-2.85873e-35
2.09765e-34
2.92495e-35
2.88417e-35
3.29051e-35
6.21091e-36
6.61117e-36
8.1285e-37
-2.17845e-36
8.87404e-37
-3.79566e-37
1.06116e-35
-1.09733e-36
5.66703e-35
-7.58795e-36
4.15456e-34
-6.17485e-35
7.25626e-34
-5.07536e-35
2.5685e-34
8.71648e-35
4.75364e-35
3.7499e-35
1.25532e-34
-1.14806e-35
-3.507e-34
8.55209e-35
-3.67811e-34
3.33879e-36
-5.08056e-35
1.04549e-35
-3.46778e-36
1.65823e-35
-2.63089e-36
8.41714e-38
6.65075e-36
-1.59275e-35
6.587e-36
-8.19509e-36
-3.1179e-36
8.9208e-36
-7.00901e-36
1.81818e-35
-3.59716e-36
1.09964e-35
3.0478e-36
2.23017e-36
3.53284e-36
6.40523e-37
4.85672e-37
8.35122e-38
7.08004e-38
9.68097e-39
7.28201e-39
-2.16342e-38
2.18764e-39
-1.55452e-37
1.36321e-38
-1.19842e-36
1.34488e-37
-3.83037e-36
9.01229e-37
-1.9832e-35
6.58629e-36
-2.59021e-35
2.62501e-36
-1.10417e-36
-9.84012e-36
1.76791e-35
-7.50192e-36
1.98046e-35
-5.49719e-37
1.21514e-35
3.45656e-36
4.58733e-36
3.64106e-36
1.17788e-35
-2.98299e-36
1.88974e-35
-3.03753e-36
1.10497e-35
3.13336e-36
2.24965e-36
3.59731e-36
7.31263e-37
9.52564e-37
1.13125e-37
-3.96831e-37
1.28591e-37
-6.35173e-38
1.21354e-36
-1.45793e-37
3.95602e-36
-9.36486e-37
2.12423e-35
-6.654e-36
3.69063e-35
-2.729e-36
1.46955e-35
9.32067e-36
3.35874e-36
4.18663e-36
5.71282e-36
-7.68331e-37
-1.75218e-35
9.13283e-36
-1.91337e-35
4.1103e-37
-5.43461e-36
3.88069e-37
-4.59199e-37
5.6383e-37
-3.44991e-37
7.62237e-39
8.81966e-37
-5.10301e-37
8.72431e-37
-2.5102e-37
-4.12607e-37
3.10867e-37
-9.30288e-37
6.46872e-37
-4.78975e-37
4.31207e-37
4.02084e-37
1.34251e-37
4.69352e-37
5.2122e-38
6.73716e-38
7.55402e-39
1.06379e-38
9.22969e-40
1.14679e-39
-2.07476e-39
3.59668e-40
-1.39958e-38
2.13943e-39
-9.6778e-38
2.01576e-38
-2.17389e-37
1.24217e-37
-7.34351e-37
8.72314e-37
-9.0499e-37
3.441e-37
-4.40091e-38
-1.30532e-36
6.06769e-37
-9.98822e-37
7.29899e-37
-7.72681e-38
5.22237e-37
4.54955e-37
2.81803e-37
4.61191e-37
4.98257e-37
-3.9529e-37
7.058e-37
-4.00786e-37
4.34389e-37
4.14729e-37
1.36381e-37
4.76409e-37
6.40067e-38
1.10512e-37
1.06203e-38
-3.26202e-38
9.62826e-39
-6.85192e-39
9.59522e-38
-2.12089e-38
2.14601e-37
-1.25711e-37
7.9327e-37
-8.65861e-37
1.39341e-36
-2.32318e-37
6.48972e-37
1.24941e-36
1.80572e-37
5.6284e-37
1.90102e-37
-1.11293e-37
-6.38669e-37
1.20834e-36
-7.59468e-37
6.37021e-38
-6.95321e-37
7.12896e-39
-4.03526e-38
4.27038e-39
-2.97854e-38
7.62424e-40
7.75071e-38
7.52648e-40
7.65777e-38
2.38198e-39
-3.612e-38
3.26234e-39
-8.19571e-38
8.7184e-39
-4.23242e-38
1.11051e-38
3.50906e-38
9.22519e-39
4.1386e-38
4.87091e-39
6.30626e-39
7.54624e-40
1.04141e-39
9.70188e-41
1.17099e-40
-2.18993e-40
3.76753e-41
-1.39171e-39
2.17958e-40
-8.99671e-39
1.96877e-39
-1.36858e-38
1.15828e-38
-1.35942e-38
7.65655e-38
-1.02244e-38
2.96979e-38
-8.74048e-40
-1.14679e-37
5.04175e-39
-8.83781e-38
1.32381e-38
-7.238e-39
1.95986e-38
4.01401e-38
1.97082e-38
4.18876e-38
1.73961e-38
-3.42621e-38
1.42645e-38
-3.49191e-38
1.14999e-38
3.63712e-38
9.44087e-39
4.22069e-38
5.91927e-39
1.13843e-38
1.06406e-39
-4.04855e-39
9.88783e-40
-7.96264e-40
8.64783e-39
-2.08298e-39
1.1423e-38
-1.15468e-38
1.41789e-38
-7.51952e-38
3.16681e-38
-1.66874e-38
2.69138e-38
1.10287e-37
1.06718e-38
5.05974e-38
1.66005e-39
-6.72485e-39
-1.15896e-38
1.05932e-37
-2.18565e-38
6.09897e-39
-6.12418e-38
-2.92017e-40
-3.73818e-39
-1.00183e-39
-2.85483e-39
6.16658e-41
7.53577e-39
1.38832e-39
7.43753e-39
8.97979e-40
-3.50635e-39
-4.58225e-40
-7.97079e-39
-7.56387e-40
-4.12529e-39
4.10659e-41
3.39897e-39
6.11308e-40
4.02762e-39
3.76796e-40
6.29836e-40
6.13314e-41
1.08722e-40
8.09432e-42
1.25721e-41
-1.83387e-41
4.14579e-42
-1.12808e-40
2.33503e-41
-6.93076e-40
2.05212e-40
-8.54707e-40
1.15224e-39
4.80098e-40
7.43605e-39
1.25709e-39
2.8641e-39
2.93067e-41
-1.11503e-38
-1.03833e-39
-8.61305e-39
-5.17776e-40
-7.28225e-40
6.85293e-40
3.8871e-39
1.33277e-39
4.00503e-39
5.42509e-40
-3.32297e-39
-3.2457e-40
-3.38195e-39
6.61495e-41
3.53196e-39
6.30639e-40
4.1042e-39
4.78089e-40
1.06746e-39
8.81944e-41
-3.30164e-40
7.05321e-41
-7.34084e-41
6.51462e-40
-2.12265e-40
6.0572e-40
-1.11513e-39
-5.89585e-40
-7.14363e-39
-2.59511e-40
-5.30728e-40
1.12492e-39
1.08698e-38
6.32472e-40
4.98362e-39
-2.78119e-40
-6.49177e-40
4.47665e-40
1.02896e-38
-3.40408e-40
6.44012e-40
-5.86182e-39
-3.47748e-40
1.00716e-39
-1.59584e-40
-9.29245e-41
1.85147e-42
6.07369e-40
1.59533e-40
5.88882e-40
9.84531e-41
-2.76693e-40
-6.20692e-41
-6.31438e-40
-1.11334e-40
-3.27469e-40
-2.48077e-41
2.67718e-40
4.67142e-41
3.19256e-40
3.10798e-41
5.16423e-41
5.18935e-42
9.16761e-42
6.99651e-43
1.08831e-42
-1.58893e-42
3.64939e-43
-9.52437e-42
2.01809e-42
-5.70418e-41
1.72774e-41
-6.31179e-41
9.42303e-41
9.22066e-41
5.87788e-40
1.73593e-40
2.24052e-40
5.91228e-42
-8.8207e-40
-1.34405e-40
-6.84137e-40
-9.50564e-41
-5.97156e-41
2.83782e-41
3.0838e-40
1.02472e-40
3.24305e-40
1.65361e-41
-2.60337e-40
-7.56128e-41
-2.66014e-40
-2.23878e-41
2.79189e-40
4.8356e-41
3.26486e-40
3.91053e-41
9.30969e-41
7.45085e-42
-3.23951e-41
5.97388e-42
-6.91953e-42
5.21595e-41
-1.78403e-41
3.3767e-41
-8.93235e-41
-1.1213e-40
-5.55445e-40
-1.08427e-40
7.30404e-42
6.63589e-41
8.67892e-40
4.67268e-41
4.01172e-40
-3.67771e-41
-3.58682e-41
8.16791e-41
8.1345e-40
1.81142e-41
5.36821e-41
-4.65433e-40
-1.93077e-39
1.02711e-39
-2.04244e-40
8.8204e-41
-1.91609e-41
5.82888e-41
1.07847e-41
4.92038e-41
7.49029e-42
-2.27172e-41
-5.01026e-42
-5.20422e-41
-9.10194e-42
-2.70303e-41
-2.42322e-42
2.20014e-41
3.27413e-42
2.63259e-41
2.24638e-42
4.33364e-42
3.84218e-43
7.88055e-43
5.24698e-44
9.51617e-44
-1.19445e-43
3.23642e-44
-7.04167e-43
1.76229e-43
-4.114e-42
1.48368e-42
-4.35965e-42
7.88927e-42
7.81671e-42
4.83981e-41
1.40386e-41
1.83515e-41
5.12618e-43
-7.26818e-41
-1.07634e-41
-5.64728e-41
-8.06349e-42
-5.03058e-42
1.37348e-42
2.53601e-41
7.24956e-42
2.65355e-41
6.2025e-43
-2.13979e-41
-6.51004e-42
-2.18566e-41
-2.2719e-42
2.29864e-41
3.40314e-42
2.69205e-41
2.90492e-42
7.60039e-42
5.57694e-43
-2.48792e-42
3.97028e-43
-5.63852e-43
3.67503e-42
-1.50258e-42
1.83061e-42
-7.24963e-42
-9.66949e-42
-4.46494e-41
-9.54285e-42
7.34674e-42
4.33383e-42
7.25395e-41
3.23981e-42
3.3449e-41
-2.8549e-42
-2.78692e-42
6.94536e-42
6.69869e-41
2.29156e-42
4.63781e-42
-3.80281e-41
-1.50677e-38
-2.0532e-39
-1.44298e-39
-1.922e-40
-1.41947e-40
-1.21573e-41
-1.12246e-41
2.20653e-42
-4.6561e-43
-1.74403e-42
-4.59659e-43
-3.77797e-42
-6.99549e-43
-1.9615e-42
-1.93825e-43
1.58773e-42
2.37556e-43
1.90801e-42
1.65006e-43
3.20953e-43
2.86148e-44
5.93496e-44
3.94966e-45
7.28854e-45
-9.00532e-45
2.50506e-45
-5.23825e-44
1.34833e-44
-3.01816e-43
1.11624e-43
-3.14517e-43
5.83334e-43
6.01832e-43
3.50117e-42
1.0662e-42
1.31817e-42
3.99176e-44
-5.26071e-42
-8.15001e-43
-4.09859e-42
-6.19367e-43
-3.72384e-43
8.5491e-44
1.83987e-42
5.26704e-43
1.95356e-42
3.02894e-44
-1.53772e-42
-5.02749e-43
-1.57559e-42
-1.81343e-43
1.66315e-42
2.47251e-43
1.95642e-42
2.12678e-43
5.86902e-43
4.14522e-44
-2.07288e-43
2.88427e-44
-4.58232e-44
2.62162e-43
-1.12352e-43
8.74596e-44
-5.22901e-43
-7.748e-43
-3.16501e-42
-7.14e-43
8.82216e-43
3.39326e-43
5.31076e-42
2.40959e-43
2.456e-42
-2.14041e-43
-1.35825e-43
5.32087e-43
4.84747e-42
1.9217e-43
3.46794e-43
-2.76196e-42
-5.00417e-40
-2.11715e-39
-6.75134e-41
-1.84575e-40
-8.5689e-42
-1.47021e-41
-7.92445e-43
-9.85611e-43
-4.41609e-44
-2.14492e-43
-3.24881e-44
-2.82438e-43
-4.72992e-44
-1.43829e-43
-1.32799e-44
1.1564e-43
1.57564e-44
1.39359e-43
1.10271e-44
2.37408e-44
1.94134e-45
4.45107e-45
2.69899e-46
5.52797e-46
-6.16382e-46
1.91606e-46
-3.55076e-45
1.02179e-45
-2.0142e-44
8.36581e-45
-2.07896e-44
4.30902e-44
4.07088e-44
2.55444e-43
7.17521e-44
9.57781e-44
2.73067e-45
-3.83997e-43
-5.48389e-44
-2.99602e-43
-4.20317e-44
-2.75985e-44
5.23266e-45
1.34199e-43
3.51314e-44
1.4229e-43
1.90723e-45
-1.11974e-43
-3.39518e-44
-1.14756e-43
-1.25215e-44
1.21335e-43
1.64429e-44
1.42944e-43
1.44962e-44
4.29308e-44
2.83056e-45
-1.47894e-44
1.76506e-45
-3.3662e-45
1.7044e-44
-8.27084e-45
3.4684e-45
-3.73896e-44
-5.40863e-44
-2.25027e-43
-4.67063e-44
9.89982e-44
2.414e-44
3.93306e-43
1.62338e-44
1.81247e-43
-1.40108e-44
-8.73342e-45
3.61794e-44
3.53691e-43
1.31712e-44
2.60685e-44
-2.00677e-43
1.01804e-38
4.57597e-40
8.70187e-40
1.47595e-40
7.35629e-41
1.417e-41
5.67329e-42
1.15732e-42
4.30803e-43
7.36814e-44
2.84997e-44
-1.27388e-44
-1.03602e-45
-9.20847e-45
-7.5197e-46
7.72168e-45
1.05269e-45
9.30487e-45
7.33963e-46
1.60882e-45
1.30399e-46
3.04722e-46
1.8235e-47
3.82776e-47
-4.16864e-47
1.33558e-47
-2.3828e-46
7.07025e-47
-1.33846e-45
5.72312e-46
-1.37489e-45
2.91689e-45
2.71658e-45
1.70302e-44
4.77815e-45
6.35248e-45
1.83553e-46
-2.56099e-44
-3.65143e-45
-2.00205e-44
-2.80435e-45
-1.8686e-45
3.39746e-46
8.96853e-45
2.32989e-45
9.61439e-45
1.21907e-46
-7.4267e-45
-2.26245e-45
-7.63055e-45
-8.38046e-46
8.09077e-45
1.09038e-45
9.56337e-45
9.64642e-46
2.99847e-45
1.89738e-46
-1.08842e-45
1.13031e-46
-2.43642e-46
1.09894e-45
-5.60594e-46
4.381e-47
-2.46016e-45
-3.75811e-45
-1.46519e-44
-2.96621e-45
8.48502e-45
1.77069e-45
2.65655e-44
1.10793e-45
1.22398e-44
-9.20575e-46
-3.38824e-46
2.41149e-45
2.35875e-44
8.82348e-46
1.77606e-45
-1.34255e-44
-1.75087e-39
6.34278e-40
-1.55893e-40
1.48505e-40
-1.35935e-41
1.39216e-41
-1.08113e-42
1.12548e-42
-8.3764e-44
8.06034e-44
-6.18454e-45
4.44638e-45
-6.21458e-46
-2.62e-46
-8.38243e-47
5.3248e-46
6.263e-47
6.17368e-46
4.53671e-47
1.07613e-46
8.16369e-48
2.054e-47
1.14717e-48
2.60008e-48
-2.62676e-48
9.118e-49
-1.49257e-47
4.79959e-48
-8.29174e-47
3.85494e-47
-8.47582e-47
1.94799e-46
1.68539e-46
1.12646e-45
2.95949e-46
4.18797e-46
1.14761e-47
-1.69448e-45
-2.26271e-46
-1.32624e-45
-1.74486e-46
-1.24995e-46
2.03301e-47
5.93411e-46
1.44502e-46
6.36531e-46
7.99365e-48
-4.90254e-46
-1.40064e-46
-5.03994e-46
-5.24709e-47
5.35145e-46
6.74774e-47
6.33468e-46
6.07423e-47
1.9992e-46
1.19374e-47
-7.20804e-47
6.3596e-48
-1.6361e-47
6.61009e-47
-3.7109e-47
-7.3233e-48
-1.58732e-46
-2.41084e-46
-9.4241e-46
-1.75834e-46
7.13051e-46
1.18163e-46
1.78366e-45
6.98552e-47
8.18271e-46
-5.56636e-47
-1.66358e-47
1.50322e-46
1.56027e-45
5.44609e-47
1.19809e-46
-8.86301e-46
-2.17598e-38
-6.31138e-40
-1.87678e-39
-1.55822e-40
-1.60332e-40
-1.47142e-41
-1.24709e-41
-1.19395e-42
-9.51824e-43
-8.65016e-44
-6.77617e-44
-6.13339e-45
-4.72068e-45
-4.38872e-46
-3.13163e-46
5.72792e-48
-1.59258e-47
3.65548e-47
1.56304e-48
6.63548e-48
4.30375e-49
1.28792e-48
6.67119e-50
1.64751e-49
-1.6261e-49
5.81089e-50
-9.18433e-49
3.04576e-49
-5.06403e-48
2.42671e-48
-5.15998e-48
1.21842e-47
1.03e-47
6.96703e-47
1.8068e-47
2.58003e-47
7.05286e-49
-1.04826e-46
-1.38163e-47
-8.21687e-47
-1.06685e-47
-7.81528e-48
1.22765e-48
3.67794e-47
8.81907e-48
3.97949e-47
4.93244e-49
-3.01944e-47
-8.54739e-48
-3.11078e-47
-3.21245e-48
3.31033e-47
4.1166e-48
3.92888e-47
3.72276e-48
1.2808e-47
7.33619e-49
-4.7984e-48
3.65026e-49
-1.07611e-48
3.90597e-48
-2.30893e-48
-1.14807e-48
-9.61658e-48
-1.53065e-47
-5.67408e-47
-1.01579e-47
5.23685e-47
7.87218e-48
1.11842e-46
4.38185e-48
5.11966e-47
-3.34855e-48
-2.31954e-49
9.18993e-48
9.65263e-47
3.32106e-48
7.52015e-48
-5.49883e-47
-1.27786e-39
-5.81798e-40
-1.14278e-40
-1.64257e-40
-9.95758e-42
-1.57284e-41
-7.9276e-43
-1.28156e-42
-6.14042e-44
-9.29919e-44
-4.44401e-45
-6.52501e-45
-3.13084e-46
-4.328e-46
-2.10042e-47
-2.57724e-47
-1.11943e-48
6.22674e-49
7.75791e-50
3.11255e-49
2.43296e-50
7.38962e-50
3.85426e-51
9.9066e-51
-9.51802e-51
3.59725e-51
-5.35545e-50
1.88788e-50
-2.92857e-49
1.49572e-49
-2.97319e-49
7.47219e-49
5.95914e-49
4.24e-48
1.04417e-48
1.56588e-48
4.10438e-50
-6.38073e-48
-7.98833e-49
-5.00666e-48
-6.18749e-49
-4.79573e-49
6.91604e-50
2.23987e-48
5.1061e-49
2.42784e-48
3.00601e-50
-1.83384e-48
-4.93658e-49
-1.89081e-48
-1.8717e-49
2.01456e-48
2.37917e-49
2.39435e-48
2.18162e-49
7.87801e-49
4.28828e-50
-2.95934e-49
1.88598e-50
-6.67509e-50
2.18525e-49
-1.39848e-49
-1.03573e-49
-5.6837e-49
-9.15553e-49
-3.34922e-48
-5.56865e-49
3.76283e-48
4.88322e-49
6.9094e-48
2.58615e-49
3.14736e-48
-1.89274e-49
8.53797e-51
5.33941e-49
5.87465e-48
1.91055e-49
4.63835e-49
-3.34467e-48
1.07485e-38
8.54955e-40
9.25632e-40
5.69007e-41
7.89781e-41
3.96048e-42
6.13646e-42
2.90501e-43
4.67953e-43
2.03115e-44
3.32849e-44
1.40374e-45
2.31176e-45
9.1739e-47
1.51987e-46
5.9877e-48
9.75105e-48
4.93126e-49
6.05544e-49
4.5441e-50
3.72516e-50
5.88806e-51
2.27939e-51
6.70329e-52
-4.29429e-52
2.16797e-52
-3.05019e-51
1.11018e-51
-1.66149e-50
8.74266e-51
-1.68242e-50
4.35122e-50
3.3819e-50
2.44782e-49
5.92107e-50
9.01205e-50
2.33989e-51
-3.68426e-49
-4.53091e-50
-2.89432e-49
-3.51437e-50
-2.79065e-50
3.87832e-51
1.29559e-49
2.89651e-50
1.41433e-49
1.73644e-51
-1.05497e-49
-2.79815e-50
-1.08981e-49
-1.06481e-50
1.16319e-49
1.34882e-50
1.3855e-49
1.24362e-50
4.6772e-50
2.44397e-51
-1.80994e-50
9.77149e-52
-4.04462e-51
1.19549e-50
-8.06322e-51
-8.19984e-51
-3.19401e-50
-5.3868e-50
-1.87583e-49
-2.96533e-50
2.47914e-49
2.98953e-50
4.04599e-49
1.50599e-50
1.83651e-49
-1.05644e-50
2.82832e-51
3.03396e-50
3.39227e-49
1.08108e-50
2.70532e-50
-1.93655e-49
1.4651e-39
1.01276e-39
1.30106e-40
8.5338e-41
1.12865e-41
6.6082e-42
8.9454e-43
5.05927e-43
6.90734e-44
3.60915e-44
4.98313e-45
2.5187e-45
3.4953e-46
1.66134e-46
2.32282e-47
1.06931e-47
1.50092e-48
6.64045e-49
9.31585e-50
4.0658e-50
5.65624e-51
2.52775e-51
3.34645e-52
1.61368e-52
-1.16542e-53
1.91172e-53
-1.65954e-52
6.40003e-53
-9.01723e-52
4.99139e-52
-9.10442e-52
2.47734e-51
1.83594e-51
1.38491e-50
3.21157e-51
5.08713e-51
1.27613e-52
-2.08468e-50
-2.4586e-51
-1.63915e-50
-1.91198e-51
-1.58871e-51
2.05785e-52
7.33697e-51
1.57378e-51
8.02926e-51
9.84125e-53
-5.95659e-51
-1.51693e-51
-6.15914e-51
-5.81543e-52
6.58099e-51
7.31743e-52
7.84936e-51
6.82561e-52
2.67792e-51
1.33639e-52
-1.04417e-51
4.60988e-53
-2.33646e-52
6.25128e-52
-4.52138e-52
-5.64562e-52
-1.74714e-51
-3.02163e-51
-1.02619e-50
-1.51048e-51
1.59373e-50
1.73161e-51
2.32387e-50
8.3541e-52
1.04917e-50
-5.61041e-52
2.34802e-52
1.65342e-51
1.91934e-50
5.83846e-52
1.54485e-51
-1.09609e-50
1.72059e-42
9.5859e-40
2.51387e-43
8.03455e-41
2.86742e-44
6.1931e-42
2.77188e-45
4.72785e-43
2.44412e-46
3.36294e-44
1.96677e-47
2.34208e-45
1.49179e-48
1.54162e-46
1.0608e-49
9.90074e-48
7.24481e-51
6.07556e-49
4.91942e-52
3.6365e-50
3.38087e-53
2.10075e-51
2.4158e-54
1.18794e-52
-1.49074e-54
7.0046e-54
-8.90536e-54
3.82782e-54
-4.79066e-53
2.72995e-53
-4.82596e-53
1.35154e-52
9.75509e-53
7.50387e-52
1.7053e-52
2.74945e-52
6.80615e-54
-1.12965e-51
-1.30583e-52
-8.89098e-52
-1.01697e-52
-8.65895e-53
1.07969e-53
3.9825e-52
8.36234e-53
4.38468e-52
5.33726e-54
-3.21759e-52
-8.05172e-53
-3.33272e-52
-3.09901e-53
3.56617e-52
3.88535e-53
4.26147e-52
3.6459e-53
1.48498e-52
7.12239e-54
-5.93136e-53
2.14813e-54
-1.31714e-53
3.18918e-53
-2.43346e-53
-3.68127e-53
-9.16078e-53
-1.6617e-52
-5.37378e-52
-7.45463e-53
9.62055e-52
9.84527e-53
1.27761e-51
4.55291e-53
5.7422e-52
-2.9296e-53
1.88996e-53
8.80132e-53
1.04014e-51
3.09215e-53
8.43024e-53
-5.95539e-52
-1.31488e-39
-2.78779e-40
-1.15679e-40
-4.0919e-41
-9.94526e-42
-3.689e-42
-7.83434e-43
-2.97752e-43
-6.01647e-44
-2.17607e-44
-4.32338e-45
-1.53682e-45
-3.02237e-46
-1.02372e-46
-2.00358e-47
-6.63002e-48
-1.29138e-48
-4.1004e-49
-7.96428e-50
-2.4669e-50
-4.77723e-51
-1.42713e-51
-2.75923e-52
-8.03477e-53
-1.55987e-53
-4.34541e-54
-1.30232e-54
-4.55916e-56
-2.49636e-54
1.44342e-54
-2.466e-54
7.20084e-54
4.99274e-54
3.97733e-53
8.72184e-54
1.45448e-53
3.49661e-55
-5.98792e-53
-6.68139e-54
-4.71646e-53
-5.21527e-54
-4.6113e-54
5.41444e-55
2.1132e-53
4.28393e-54
2.33334e-53
2.83332e-55
-1.70202e-53
-4.11635e-54
-1.76478e-53
-1.59463e-54
1.89021e-53
1.98773e-54
2.2617e-53
1.88409e-54
7.9693e-54
3.66374e-55
-3.21532e-54
9.09427e-56
-7.13216e-55
1.5649e-54
-1.27403e-54
-2.22184e-54
-4.6718e-54
-8.78162e-54
-2.74395e-53
-3.53435e-54
5.65994e-53
5.35197e-54
6.87523e-53
2.38351e-54
3.07228e-53
-1.46785e-54
1.21548e-54
4.521e-54
5.51343e-53
1.57499e-54
4.497e-54
-3.15988e-53
-1.00575e-38
-2.85174e-39
-8.59235e-40
-3.5279e-40
-7.29449e-41
-3.0197e-41
-5.63658e-42
-2.38451e-42
-4.28209e-43
-1.71393e-43
-3.03356e-44
-1.19802e-44
-2.10075e-45
-7.89727e-46
-1.37699e-46
-5.07569e-47
-8.80129e-48
-3.11429e-48
-5.37733e-49
-1.86218e-49
-3.20147e-50
-1.0708e-50
-1.83434e-51
-6.00137e-52
-1.02445e-52
-3.25099e-53
-5.55548e-54
-1.70808e-54
-4.1412e-55
-1.32266e-56
-1.37965e-55
3.65603e-55
2.49164e-55
2.03195e-54
4.36272e-55
7.41589e-55
1.75554e-56
-3.05957e-54
-3.3433e-55
-2.41192e-54
-2.6135e-55
-2.36655e-55
2.67476e-56
1.08154e-54
2.14498e-55
1.20054e-54
1.44913e-56
-8.67255e-55
-2.05854e-55
-9.00666e-55
-8.00736e-56
9.65855e-55
9.94473e-56
1.1576e-54
9.48476e-56
4.15325e-55
1.83764e-56
-1.71e-55
3.71806e-57
-3.76853e-56
7.48365e-56
-6.43825e-56
-1.29064e-55
-2.2961e-55
-4.54295e-55
-1.34906e-54
-1.61965e-55
3.17e-54
2.84856e-55
3.56525e-54
1.22328e-55
1.58491e-54
-7.21502e-56
7.69449e-56
2.26791e-55
2.81743e-54
7.85603e-56
2.30886e-55
-1.61883e-54
1.63123e-38
-2.06276e-39
1.41618e-39
-1.34867e-40
1.21418e-40
-9.32259e-42
9.48532e-42
-6.82446e-43
7.25954e-43
-4.77438e-44
5.18392e-44
-3.30301e-45
3.61066e-45
-2.16404e-46
2.38104e-46
-1.38568e-47
1.52895e-47
-8.47144e-49
9.38594e-49
-5.05135e-50
5.60929e-50
-2.89625e-51
3.2263e-51
-1.61936e-52
1.80747e-52
-8.75105e-54
9.79131e-54
-4.60904e-55
5.11251e-55
-1.98463e-56
2.05604e-56
1.73868e-56
1.34344e-56
1.01453e-55
2.11918e-56
3.69794e-56
8.56397e-58
-1.52834e-55
-1.61951e-56
-1.20565e-55
-1.26858e-56
-1.18641e-56
1.27197e-57
5.40903e-56
1.04028e-56
6.02299e-56
7.24876e-58
-4.32354e-56
-9.96447e-57
-4.49514e-56
-3.89862e-57
4.82465e-56
4.81712e-57
5.78975e-56
4.63558e-57
2.10076e-56
8.93396e-58
-8.74682e-57
1.3359e-58
-1.92299e-57
3.4565e-57
-3.16725e-57
-7.10324e-57
-1.09747e-56
-2.27105e-56
-6.46286e-56
-7.13971e-57
1.73018e-55
1.45995e-56
1.80826e-55
6.06591e-57
7.98961e-56
-3.42308e-57
4.38209e-57
1.10263e-56
1.40743e-55
3.78891e-57
1.15828e-56
-8.09843e-56
3.74525e-38
9.35717e-40
3.2287e-39
4.60729e-40
2.75716e-40
4.55881e-41
2.14382e-41
3.74297e-42
1.63577e-42
2.71935e-43
1.1641e-43
1.90663e-44
8.08848e-45
1.25776e-45
5.32002e-46
8.085e-47
3.40941e-47
4.96051e-48
2.08863e-48
2.96593e-49
1.24616e-49
1.70534e-50
7.15533e-51
9.55696e-52
4.00296e-52
5.17689e-53
2.16559e-53
2.73496e-54
1.1421e-54
1.40364e-55
5.8203e-56
7.91583e-57
3.49595e-57
5.2521e-57
1.14261e-57
1.80215e-57
4.72901e-59
-7.3928e-57
-7.66866e-58
-5.83668e-57
-6.018e-58
-5.75874e-58
5.94602e-59
2.62093e-57
4.9316e-58
2.93236e-57
3.51038e-59
-2.08638e-57
-4.7175e-58
-2.17247e-57
-1.85344e-58
2.33413e-57
2.28172e-58
2.80525e-57
2.20953e-58
1.03411e-57
4.2384e-59
-4.38196e-58
4.30447e-60
-9.5791e-59
1.55503e-58
-1.50994e-58
-3.78605e-58
-5.07357e-58
-1.1108e-57
-2.99289e-57
-3.03124e-58
9.06858e-57
7.31885e-58
8.88012e-57
2.94611e-58
3.90114e-57
-1.59154e-58
2.4454e-58
5.23717e-58
6.80944e-57
1.78865e-58
5.62103e-58
-3.92805e-57
-1.25757e-38
-1.04357e-39
-1.08261e-39
1.75787e-40
-9.23428e-41
2.04817e-41
-7.17304e-42
1.74383e-42
-5.46882e-43
1.27887e-43
-3.8892e-44
8.99005e-45
-2.70083e-45
5.93359e-46
-1.77554e-46
3.8143e-47
-1.13743e-47
2.33988e-48
-6.96551e-49
1.39882e-49
-4.15472e-50
8.04132e-51
-2.38501e-51
4.50575e-52
-1.334e-52
2.44026e-53
-7.21568e-54
1.28898e-54
-3.80598e-55
6.60648e-56
-1.94949e-56
3.34721e-57
-9.46959e-58
3.93093e-58
-1.29887e-60
9.1995e-59
-3.77316e-61
-3.49344e-58
-3.54109e-59
-2.76218e-58
-2.77524e-59
-2.73127e-59
2.6892e-60
1.24126e-58
2.27221e-59
1.39327e-58
1.66247e-60
-9.84912e-59
-2.16962e-59
-1.02675e-58
-8.56976e-60
1.10402e-58
1.0501e-59
1.32847e-58
1.02517e-59
4.95216e-59
1.95508e-60
-2.12293e-59
9.52713e-62
-4.62649e-60
6.77473e-60
-7.01429e-60
-1.93477e-59
-2.28125e-59
-5.2713e-59
-1.35014e-58
-1.23519e-59
4.63431e-58
3.55078e-59
4.26506e-58
1.38827e-59
1.86177e-58
-7.17285e-60
1.27784e-59
2.41861e-59
3.22093e-58
8.19627e-60
2.66586e-59
-1.86127e-58
-3.7534e-38
-5.99497e-39
-3.23189e-39
-5.90104e-40
-2.75739e-40
-4.77236e-41
-2.14225e-41
-3.70123e-42
-1.63355e-42
-2.64405e-43
-1.16185e-43
-1.84388e-44
-8.06929e-45
-1.21383e-45
-5.30521e-46
-7.79502e-47
-3.39882e-47
-4.77904e-48
-2.08151e-48
-2.85588e-49
-1.24161e-49
-1.64118e-50
-7.12764e-51
-9.19349e-52
-3.98677e-52
-4.97785e-53
-2.15649e-53
-2.62883e-54
-1.13742e-54
-1.34694e-55
-5.82245e-56
-6.73494e-57
-2.90779e-57
-3.17169e-58
-1.39367e-58
-1.17174e-59
-6.63431e-60
-1.67958e-59
-1.90076e-60
-1.27373e-59
-1.26511e-60
-1.26008e-60
1.18817e-61
5.71424e-60
1.0238e-60
6.44217e-60
7.64923e-62
-4.51664e-60
-9.76213e-61
-4.71533e-60
-3.87209e-61
5.07469e-60
4.72747e-61
6.11492e-60
4.6442e-61
2.31205e-60
8.80858e-62
-1.00671e-60
-9.27185e-65
-2.18281e-61
2.87356e-61
-3.16693e-61
-9.60785e-61
-9.94399e-61
-2.44765e-60
-5.90301e-60
-4.8128e-61
2.28768e-59
1.68471e-60
1.9904e-59
6.40602e-61
8.6351e-60
-3.16682e-61
6.52769e-61
1.09188e-60
1.48061e-59
3.67648e-61
1.22759e-60
-8.57747e-60
1.3303e-38
-3.41377e-39
1.14467e-39
-2.46807e-40
9.75932e-41
-1.79495e-41
7.57848e-42
-1.34223e-42
5.77637e-43
-9.48374e-44
4.10707e-44
-6.59171e-45
2.85165e-45
-4.33516e-46
1.87443e-46
-2.78308e-47
1.20066e-47
-1.70605e-48
7.35209e-49
-1.01943e-49
4.38502e-50
-5.85794e-51
2.51709e-51
-3.28126e-52
1.40783e-52
-1.77655e-53
7.61485e-54
-9.38153e-55
4.01633e-55
-4.80659e-56
2.05593e-56
-2.40386e-57
1.02725e-57
-1.165e-58
5.00358e-59
-5.38809e-60
2.37632e-60
-9.80457e-61
4.02141e-62
-5.83169e-61
-4.99772e-62
-5.72227e-62
5.37263e-63
2.5723e-61
4.49605e-62
2.9098e-61
3.4435e-63
-2.02675e-61
-4.27856e-62
-2.11846e-61
-1.70554e-62
2.28152e-61
2.07337e-62
2.75247e-61
2.05219e-62
1.05217e-61
3.86801e-63
-4.63471e-62
-2.10213e-64
-1.00154e-62
1.18203e-62
-1.39469e-62
-4.60694e-62
-4.21591e-62
-1.10599e-61
-2.51366e-61
-1.78342e-62
1.10192e-60
7.76403e-62
9.0877e-61
2.87684e-62
3.91653e-61
-1.35957e-62
3.18076e-62
4.80444e-62
6.65699e-61
1.60545e-62
5.52715e-62
-3.86419e-61
3.76777e-38
9.07787e-40
3.24076e-39
4.64496e-40
2.76352e-40
4.59876e-41
2.14544e-41
3.77526e-42
1.63526e-42
2.74137e-43
1.16242e-43
1.92145e-44
8.07016e-45
1.26702e-45
5.30341e-46
8.14247e-47
3.39652e-47
4.99431e-48
2.07933e-48
2.98558e-49
1.23994e-49
1.71628e-50
7.11575e-51
9.61697e-52
3.97903e-52
5.20863e-53
2.15169e-53
2.75145e-54
1.13461e-54
1.41014e-55
5.80652e-56
7.0547e-57
2.90038e-57
3.43413e-58
1.40992e-58
1.6339e-59
6.69604e-60
7.25724e-61
3.07143e-61
9.30448e-63
1.16857e-62
-9.66799e-64
8.39754e-64
1.13519e-62