/*--------------------------------*- C++ -*----------------------------------*\
| =========                 |                                                 |
| \\      /  F ield         | OpenFOAM: The Open Source CFD Toolbox           |
|  \\    /   O peration     | Version:  2.4.0                                 |
|   \\  /    A nd           | Web:      www.OpenFOAM.org                      |
|    \\/     M anipulation  |                                                 |
\*---------------------------------------------------------------------------*/
FoamFile
{
    version     2.0;
    format      ascii;
    class       volVectorField;
    location    "0.15";
    object      U;
}
// * * * * * * * * * * * * * * * * * * * * * * * * * * * * * * * * * * * * * //

dimensions      [0 1 -1 0 0 0 0];

internalField   nonuniform List<vector> 
1935
(
(6.51801e-37 4.54965e-42 0)
(2.50989e-38 -2.12387e-38 0)
(2.93119e-39 -1.0202e-39 0)
(3.49224e-40 -5.45101e-39 0)
(-2.84668e-41 -8.94522e-38 0)
(-9.59149e-37 -2.97266e-36 0)
(-8.67502e-35 -3.43886e-35 0)
(-5.81336e-33 -1.13822e-33 0)
(-2.58372e-31 -2.11398e-33 0)
(-5.75325e-33 -7.30644e-32 0)
(1.92056e-33 -4.37026e-31 0)
(-1.01533e-34 -1.9615e-29 0)
(-4.0667e-33 3.88756e-31 0)
(-2.16569e-35 2.00137e-29 0)
(2.04862e-33 4.48474e-31 0)
(6.14731e-35 7.57433e-32 0)
(-5.14891e-37 4.3769e-33 0)
(-6.29909e-35 8.29315e-32 0)
(-2.24019e-33 4.15147e-31 0)
(2.54457e-33 2.20414e-29 0)
(7.04613e-33 -2.4025e-29 0)
(-2.40018e-33 -4.65946e-29 0)
(-7.18402e-33 -6.77199e-31 0)
(2.55446e-33 2.33428e-29 0)
(7.42832e-33 -2.54919e-29 0)
(-5.07993e-33 -4.91868e-29 0)
(-5.07226e-33 2.42014e-29 0)
(2.28401e-33 3.9339e-33 0)
(-8.19473e-33 3.52031e-31 0)
(-3.67943e-31 -9.64672e-31 0)
(-8.37846e-33 -2.65492e-29 0)
(-2.83918e-33 -5.95105e-31 0)
(-8.30384e-35 -1.00079e-31 0)
(-7.16621e-36 -2.87247e-33 0)
(1.19911e-38 -5.27467e-34 0)
(7.81345e-36 -2.92811e-33 0)
(8.32819e-35 -1.09055e-31 0)
(2.95269e-33 -5.47958e-31 0)
(-3.32776e-33 -2.90499e-29 0)
(-9.2683e-33 3.14138e-29 0)
(3.04916e-33 6.12668e-29 0)
(6.29064e-33 1.4708e-30 0)
(1.82395e-34 2.38658e-31 0)
(1.02641e-35 -4.82695e-42 0)
(2.567e-34 -5.06469e-42 0)
(2.79092e-33 -3.03571e-43 0)
(7.11699e-32 -7.22981e-44 0)
(3.96889e-37 -5.74693e-37 0)
(9.16667e-36 -8.70782e-36 0)
(1.00139e-34 -2.16579e-34 0)
(2.21802e-33 -2.26514e-33 0)
(4.33362e-38 -2.20049e-38 0)
(9.7451e-37 -3.36548e-37 0)
(8.92367e-36 -7.72483e-36 0)
(1.81448e-34 -8.07718e-35 0)
(1.79038e-39 2.53905e-39 0)
(3.23287e-38 -3.15201e-38 0)
(2.92213e-37 -8.28012e-37 0)
(5.39506e-36 -7.51968e-36 0)
(6.39293e-40 8.31032e-38 0)
(-4.24439e-39 8.6367e-38 0)
(1.15785e-38 -2.2707e-38 0)
(3.25997e-37 -2.47729e-37 0)
(-9.42317e-37 2.76147e-36 0)
(-1.54888e-37 2.89811e-36 0)
(-1.03924e-37 1.48687e-37 0)
(3.88487e-39 9.75212e-40 0)
(-8.59353e-35 3.01418e-35 0)
(-7.68623e-36 3.17393e-35 0)
(-3.52274e-36 1.63597e-36 0)
(-1.77789e-37 1.51857e-37 0)
(-5.78266e-33 9.97363e-34 0)
(-2.83113e-34 1.04283e-33 0)
(-4.35435e-35 4.59295e-35 0)
(-2.03334e-36 4.26558e-36 0)
(-2.57379e-31 -1.01692e-34 0)
(-9.04337e-33 -9.58246e-36 0)
(-1.39519e-33 -4.13342e-37 0)
(-5.66836e-35 -2.72049e-38 0)
(-3.48234e-33 -4.07247e-33 0)
(-1.6971e-34 -1.3188e-33 0)
(-3.24798e-35 -5.67834e-35 0)
(-1.55329e-36 -4.97708e-36 0)
(7.6258e-32 -1.83676e-32 0)
(3.18715e-33 -4.79984e-34 0)
(3.08642e-34 -9.46346e-36 0)
(1.22925e-35 -2.17774e-37 0)
(-3.84167e-33 -5.83232e-31 0)
(-1.78568e-34 -1.20071e-32 0)
(-1.754e-35 -1.85208e-34 0)
(-7.4193e-37 -9.31931e-37 0)
(-1.54689e-31 1.16825e-32 0)
(-6.47716e-33 2.46179e-34 0)
(-6.33251e-34 3.94736e-36 0)
(-2.53097e-35 3.32478e-38 0)
(-8.38603e-34 5.95329e-31 0)
(-5.2375e-35 1.22648e-32 0)
(-5.11361e-36 1.89383e-34 0)
(-2.42889e-37 9.65248e-37 0)
(7.79162e-32 1.88154e-32 0)
(3.26136e-33 4.68039e-34 0)
(3.18672e-34 8.41824e-36 0)
(1.27324e-35 9.55251e-38 0)
(2.35284e-33 3.13963e-33 0)
(1.15988e-34 2.81803e-34 0)
(1.1323e-35 1.10854e-35 0)
(4.91345e-37 7.26684e-37 0)
(-2.03523e-35 2.10648e-34 0)
(-9.58802e-37 1.96425e-35 0)
(-1.09286e-37 8.45986e-37 0)
(-4.68526e-39 5.54249e-38 0)
(-2.40094e-33 3.41878e-33 0)
(-1.18432e-34 3.05979e-34 0)
(-1.13378e-35 1.19848e-35 0)
(-4.90844e-37 7.85167e-37 0)
(-8.51728e-32 1.74472e-32 0)
(-3.54228e-33 1.82886e-34 0)
(-3.45907e-34 -4.16671e-36 0)
(-1.37676e-35 -7.90058e-37 0)
(9.68244e-32 6.48042e-31 0)
(4.09468e-33 1.29934e-32 0)
(4.00297e-34 1.91066e-34 0)
(1.6089e-35 1.01925e-37 0)
(2.68009e-31 -7.21936e-31 0)
(1.12204e-32 -1.52102e-32 0)
(1.09676e-33 -2.43824e-34 0)
(4.38294e-35 -2.05901e-36 0)
(-9.12863e-32 -1.39219e-30 0)
(-3.82162e-33 -2.87698e-32 0)
(-3.73383e-34 -4.456e-34 0)
(-1.49194e-35 -2.3293e-36 0)
(-2.73231e-31 -2.83497e-32 0)
(-1.14341e-32 -1.209e-33 0)
(-1.11722e-33 -3.66999e-35 0)
(-4.46323e-35 -1.9062e-36 0)
(9.71462e-32 6.84225e-31 0)
(4.06677e-33 1.32168e-32 0)
(3.97158e-34 1.78429e-34 0)
(1.58676e-35 -1.55846e-36 0)
(2.82517e-31 -7.65063e-31 0)
(1.18038e-32 -1.58736e-32 0)
(1.1536e-33 -2.47112e-34 0)
(4.60452e-35 -1.3737e-36 0)
(-1.93212e-31 -1.46384e-30 0)
(-8.06884e-33 -3.04182e-32 0)
(-7.88892e-34 -4.77863e-34 0)
(-3.14829e-35 -3.2531e-36 0)
(-1.92894e-31 7.06227e-31 0)
(-8.09738e-33 1.43552e-32 0)
(-7.91538e-34 2.18868e-34 0)
(-3.16815e-35 1.01095e-36 0)
(9.14542e-32 4.91793e-33 0)
(3.78087e-33 -3.05531e-34 0)
(3.65703e-34 -1.87882e-35 0)
(1.44676e-35 -1.53604e-36 0)
(-2.7326e-33 1.16101e-32 0)
(-1.31624e-34 1.67572e-33 0)
(-3.61083e-35 6.76987e-35 0)
(-1.77501e-36 6.0385e-36 0)
(-2.6466e-31 -3.58474e-32 0)
(-8.59532e-33 -8.48223e-34 0)
(-1.5736e-33 -1.48118e-35 0)
(-6.42168e-35 -1.60297e-37 0)
(-9.7365e-33 -7.92314e-31 0)
(-4.66202e-34 -1.80667e-32 0)
(-6.8346e-35 -3.30364e-34 0)
(-3.15147e-36 -8.32419e-36 0)
(-1.03386e-31 -2.50297e-32 0)
(-4.33516e-33 -6.75073e-34 0)
(-4.27803e-34 -1.39489e-35 0)
(-1.71527e-35 -3.76023e-37 0)
(-3.12774e-33 -4.15227e-33 0)
(-1.54416e-34 -3.76461e-34 0)
(-1.52186e-35 -1.48605e-35 0)
(-6.62586e-37 -9.83278e-37 0)
(-2.84959e-34 -1.38358e-34 0)
(-1.39453e-35 -1.31773e-35 0)
(-1.60964e-36 -5.70474e-37 0)
(-7.10739e-38 -3.78877e-38 0)
(4.54958e-37 -2.5035e-35 0)
(2.42671e-38 -2.86109e-36 0)
(2.31624e-39 -1.2624e-37 0)
(1.04363e-40 -8.9371e-39 0)
(3.10523e-34 -1.41017e-34 0)
(1.51368e-35 -1.3017e-35 0)
(1.73716e-36 -5.59906e-37 0)
(7.64064e-38 -3.65183e-38 0)
(3.17492e-33 -4.49433e-33 0)
(1.56645e-34 -4.01955e-34 0)
(1.50078e-35 -1.57378e-35 0)
(6.49922e-37 -1.03074e-36 0)
(1.12263e-31 -2.30282e-32 0)
(4.66917e-33 -2.44397e-34 0)
(4.55951e-34 5.35661e-36 0)
(1.81481e-35 1.0323e-36 0)
(-1.26627e-31 -8.54172e-31 0)
(-5.35531e-33 -1.71288e-32 0)
(-5.23545e-34 -2.51934e-34 0)
(-2.10435e-35 -1.39414e-37 0)
(-3.52547e-31 9.44018e-31 0)
(-1.47619e-32 1.98998e-32 0)
(-1.44321e-33 3.1937e-34 0)
(-5.76818e-35 2.73047e-36 0)
(1.15961e-31 1.83185e-30 0)
(4.82927e-33 3.81821e-32 0)
(4.72148e-34 6.01445e-34 0)
(1.88121e-35 4.14755e-36 0)
(2.3929e-31 6.16722e-32 0)
(1.00441e-32 1.84634e-33 0)
(9.8171e-34 4.24831e-35 0)
(3.92891e-35 1.40593e-36 0)
(6.96414e-33 9.95495e-33 0)
(3.44513e-34 8.68677e-34 0)
(3.35549e-35 3.39813e-35 0)
(1.46019e-36 2.20949e-36 0)
(4.47491e-31 -8.00849e-43 0)
(1.56825e-29 -7.40591e-43 0)
(1.53028e-29 1.57883e-42 0)
(-1.53004e-29 1.57313e-42 0)
(-1.56154e-29 -7.7466e-43 0)
(2.23612e-33 -1.60512e-42 0)
(1.56827e-29 -8.07403e-43 0)
(1.57473e-29 7.72803e-43 0)
(4.4671e-31 8.05077e-43 0)
(6.70706e-32 3.22909e-44 0)
(2.2357e-33 3.36092e-45 0)
(1.89453e-34 1.22066e-46 0)
(-6.05374e-36 3.99232e-48 0)
(-3.73626e-34 -3.18238e-46 0)
(-4.28159e-33 -1.21721e-44 0)
(-1.31912e-31 -3.88782e-43 0)
(-8.26532e-31 -1.20036e-41 0)
(-3.105e-29 -1.60076e-40 0)
(-1.56825e-29 5.02042e-39 0)
(1.53026e-29 1.1112e-36 0)
(1.60625e-29 8.74259e-35 0)
(1.58137e-29 5.19173e-33 0)
(5.15832e-31 2.08087e-31 0)
(5.14888e-31 5.19174e-33 0)
(1.57518e-29 8.85321e-35 0)
(1.57497e-29 8.74259e-35 0)
(4.46197e-31 5.10431e-33 0)
(6.78118e-32 2.02895e-31 0)
(2.98262e-33 -2.02895e-31 0)
(-1.38524e-34 -5.1043e-33 0)
(4.45301e-33 -8.51756e-35 0)
(1.33999e-31 8.85159e-35 0)
(8.92683e-31 5.32216e-33 0)
(3.14361e-29 2.13316e-31 0)
(3.11811e-29 5.40959e-33 0)
(-1.40969e-29 5.28135e-33 0)
(1.49899e-29 2.08087e-31 0)
(-4.41894e-31 5.10536e-33 0)
(-3.06704e-29 -5.02028e-33 0)
(-8.49315e-31 -2.02904e-31 0)
(1.40273e-32 -5.71082e-32 0)
(3.52838e-31 -5.33911e-32 0)
(3.40908e-31 1.12724e-31 0)
(-3.40821e-31 1.1255e-31 0)
(-3.50749e-31 -5.54336e-32 0)
(8.02247e-35 -1.14412e-31 0)
(3.52844e-31 -5.74635e-32 0)
(3.54845e-31 5.52546e-32 0)
(1.40176e-32 5.72898e-32 0)
(2.08782e-33 2.03558e-33 0)
(8.02086e-35 1.79411e-34 0)
(6.74202e-36 6.12504e-36 0)
(-2.33911e-37 1.10554e-36 0)
(-1.32798e-35 1.18425e-35 0)
(-1.53661e-34 3.52731e-34 0)
(-4.09566e-33 3.89211e-33 0)
(-2.59538e-32 1.1255e-31 0)
(-6.95746e-31 5.33919e-32 0)
(-3.52837e-31 -1.68337e-31 0)
(3.40899e-31 -1.16454e-31 0)
(3.64755e-31 -2.2103e-33 0)
(3.56177e-31 5.71167e-32 0)
(1.61791e-32 6.07603e-32 0)
(1.68744e-32 -5.50692e-32 0)
(3.55029e-31 -5.52483e-32 0)
(3.54911e-31 5.54452e-32 0)
(1.32943e-32 5.74762e-32 0)
(2.84395e-33 7.18372e-33 0)
(8.36553e-34 -4.9691e-33 0)
(-7.10085e-34 -1.86034e-34 0)
(1.34977e-34 -3.62304e-34 0)
(4.14227e-33 -3.97701e-33 0)
(2.72293e-32 -1.09102e-31 0)
(7.07907e-31 1.04137e-31 0)
(7.00568e-31 1.69778e-31 0)
(-3.03735e-31 5.97806e-32 0)
(3.31057e-31 -4.23026e-32 0)
(-1.3094e-32 1.6498e-31 0)
(-6.83095e-31 1.82369e-33 0)
(-2.78328e-32 -1.1017e-31 0)
(3.84079e-34 -1.74013e-33 0)
(5.17543e-33 -1.60747e-33 0)
(4.96565e-33 3.42692e-33 0)
(-4.95779e-33 3.42077e-33 0)
(-5.00266e-33 -1.68033e-33 0)
(7.10224e-36 -3.48725e-33 0)
(5.176e-33 -1.75274e-33 0)
(5.34082e-33 1.67397e-33 0)
(3.82286e-34 1.74658e-33 0)
(1.72593e-34 7.26284e-35 0)
(7.10037e-36 6.38103e-36 0)
(7.19824e-37 2.36644e-37 0)
(-2.53426e-38 4.24105e-38 0)
(-1.41775e-36 4.57567e-37 0)
(-1.34793e-35 1.25268e-35 0)
(-3.38111e-34 1.3889e-34 0)
(-5.92672e-34 3.42075e-33 0)
(-1.03057e-32 1.60747e-33 0)
(-5.17528e-33 -5.11364e-33 0)
(4.96483e-33 -3.56005e-33 0)
(5.38543e-33 -7.67131e-35 0)
(5.48915e-33 1.76107e-33 0)
(5.61283e-34 2.47147e-33 0)
(5.80562e-34 -1.64672e-33 0)
(5.3559e-33 -1.67154e-33 0)
(5.34785e-33 1.68289e-33 0)
(3.59729e-34 1.77175e-33 0)
(1.96894e-34 8.36793e-34 0)
(3.14198e-35 -7.57798e-34 0)
(-2.12215e-35 -2.51437e-35 0)
(1.08989e-35 -1.48616e-35 0)
(3.18316e-34 -1.3957e-34 0)
(-1.45238e-35 -3.29765e-33 0)
(1.05358e-32 2.16691e-33 0)
(1.14177e-32 5.16733e-33 0)
(-4.15921e-33 1.85843e-33 0)
(4.92961e-33 -6.10622e-34 0)
(-3.45343e-34 5.01241e-33 0)
(-1.00914e-32 5.02982e-35 0)
(-1.00619e-33 -3.91261e-33 0)
(7.78011e-36 -1.58705e-34 0)
(5.51127e-35 -1.4678e-34 0)
(5.25122e-35 3.12968e-34 0)
(-5.22544e-35 3.12307e-34 0)
(-4.99624e-35 -1.53487e-34 0)
(2.32625e-37 -3.18325e-34 0)
(5.51312e-35 -1.60142e-34 0)
(6.00202e-35 1.52803e-34 0)
(7.74075e-36 1.5948e-34 0)
(5.14379e-36 6.67898e-36 0)
(2.32559e-37 6.86281e-37 0)
(2.39688e-38 2.58397e-38 0)
(-8.93642e-40 4.93612e-39 0)
(-4.71655e-38 4.98493e-38 0)
(-4.41094e-37 1.34688e-36 0)
(-1.00559e-35 1.26733e-35 0)
(-1.03607e-35 3.12305e-34 0)
(-1.12506e-34 1.46783e-34 0)
(-5.51074e-35 -4.67143e-34 0)
(5.2479e-35 -3.25029e-34 0)
(5.7669e-35 -7.28193e-36 0)
(6.30715e-35 1.59062e-34 0)
(1.30939e-35 1.77437e-34 0)
(1.50239e-35 -1.5185e-34 0)
(6.05589e-35 -1.5271e-34 0)
(6.02119e-35 1.536e-34 0)
(5.75583e-36 1.60374e-34 0)
(7.23747e-36 2.97051e-35 0)
(2.32685e-36 -2.23414e-35 0)
(-1.94137e-36 -8.86787e-37 0)
(2.99607e-37 -1.37519e-36 0)
(9.27493e-36 -1.09583e-35 0)
(-9.5355e-36 -2.90451e-34 0)
(1.15767e-34 5.09658e-34 0)
(1.47359e-34 4.82501e-34 0)
(-4.0591e-35 1.70184e-34 0)
(5.51112e-35 -1.04034e-34 0)
(-5.19749e-36 4.56733e-34 0)
(-1.08571e-34 6.3641e-36 0)
(-2.67123e-35 -3.11375e-34 0)
(3.20495e-37 -4.80303e-36 0)
(-2.03353e-37 -4.4108e-36 0)
(-2.10185e-37 9.46125e-36 0)
(2.25968e-37 9.43925e-36 0)
(5.15389e-37 -4.63195e-36 0)
(1.41493e-38 -9.63748e-36 0)
(-2.02225e-37 -4.8513e-36 0)
(9.37251e-38 4.60913e-36 0)
(3.1807e-37 4.82927e-36 0)
(3.11539e-37 2.20199e-37 0)
(1.41449e-38 2.28814e-38 0)
(1.55516e-39 9.11758e-40 0)
(-5.7884e-41 1.7404e-40 0)
(-3.06051e-39 1.75873e-39 0)
(-2.67309e-38 4.48569e-38 0)
(-6.0899e-37 4.17574e-37 0)
(-3.26094e-37 9.43919e-36 0)
(1.18153e-37 4.41085e-36 0)
(2.0378e-37 -1.41161e-35 0)
(-2.12065e-37 -9.85833e-36 0)
(-1.96979e-37 -2.34582e-37 0)
(3.40204e-37 4.86232e-36 0)
(6.42252e-37 6.63297e-36 0)
(6.97718e-37 -4.53035e-36 0)
(1.24499e-37 -4.60011e-36 0)
(1.07218e-37 4.64148e-36 0)
(2.57426e-37 4.9004e-36 0)
(3.76673e-37 2.14348e-36 0)
(7.93104e-38 -1.90045e-36 0)
(-5.79296e-38 -7.08506e-38 0)
(1.65517e-38 -5.07725e-38 0)
(5.37122e-37 -3.51182e-37 0)
(-1.517e-36 -8.66265e-36 0)
(-7.11155e-38 1.54922e-35 0)
(2.6332e-36 1.46845e-35 0)
(5.66781e-37 5.24004e-36 0)
(1.01194e-37 -1.78998e-36 0)
(-2.28123e-37 1.38158e-35 0)
(1.42107e-37 1.80896e-37 0)
(-1.26889e-36 -1.05663e-35 0)
(8.18914e-39 -2.93756e-37 0)
(-2.11751e-38 -2.70654e-37 0)
(-2.06268e-38 5.80424e-37 0)
(2.11225e-38 5.78993e-37 0)
(3.04391e-38 -2.84223e-37 0)
(4.45669e-40 -5.91027e-37 0)
(-2.11157e-38 -2.9763e-37 0)
(-1.23347e-38 2.8274e-37 0)
(8.73652e-39 2.96198e-37 0)
(9.27201e-39 1.34619e-38 0)
(4.45524e-40 1.48651e-39 0)
(4.90999e-41 5.9211e-41 0)
(-1.90124e-42 1.1587e-41 0)
(-9.6563e-41 1.14111e-40 0)
(-8.41828e-40 2.91419e-39 0)
(-1.81004e-38 2.5441e-38 0)
(-8.24811e-39 5.78989e-37 0)
(3.30135e-38 2.70702e-37 0)
(2.11645e-38 -8.66133e-37 0)
(-2.06943e-38 -6.04541e-37 0)
(-2.17683e-38 -1.46609e-38 0)
(-6.93595e-39 2.95883e-37 0)
(1.84067e-38 3.46231e-37 0)
(2.19777e-38 -2.80085e-37 0)
(-1.12981e-38 -2.82427e-37 0)
(-1.19668e-38 2.84577e-37 0)
(5.07957e-39 2.9862e-37 0)
(1.31477e-38 7.28826e-38 0)
(4.3222e-39 -5.79373e-38 0)
(-3.5733e-39 -2.39603e-39 0)
(4.28539e-40 -2.92755e-39 0)
(1.56314e-38 -1.80579e-38 0)
(-4.94751e-38 -5.10399e-37 0)
(-3.22831e-38 1.49445e-36 0)
(5.16188e-38 9.21778e-37 0)
(2.74655e-38 3.22641e-37 0)
(-1.05825e-38 -1.7083e-37 0)
(-4.02212e-39 8.46134e-37 0)
(3.4814e-38 1.30841e-38 0)
(-4.01686e-38 -5.91124e-37 0)
(-1.74424e-38 -2.63818e-39 0)
(-1.96252e-39 -7.67414e-39 0)
(-1.27035e-39 1.73057e-38 0)
(1.24887e-39 1.72485e-38 0)
(1.70716e-39 -8.45769e-39 0)
(2.1169e-41 -1.76273e-38 0)
(-1.26216e-39 -8.88035e-39 0)
(-8.42956e-40 8.41088e-39 0)
(4.04976e-40 8.83521e-39 0)
(4.42577e-40 4.24442e-40 0)
(2.11645e-41 4.69545e-41 0)
(2.3891e-42 1.94499e-42 0)
(-9.20604e-44 3.79253e-43 0)
(-4.69905e-42 3.74846e-42 0)
(-3.99339e-41 9.1977e-41 0)
(-8.64081e-40 8.02053e-40 0)
(-3.69666e-40 1.72478e-38 0)
(2.07231e-39 8.03133e-39 0)
(1.26454e-39 -2.57977e-38 0)
(-1.22978e-39 -1.80531e-38 0)
(-1.30272e-39 -4.53067e-40 0)
(-5.17657e-40 8.89799e-39 0)
(8.66413e-40 1.21492e-38 0)
(9.69507e-40 -8.25426e-39 0)
(-7.95969e-40 -8.39138e-39 0)
(-8.23481e-40 8.47824e-39 0)
(2.95477e-40 8.97531e-39 0)
(5.59973e-40 3.96157e-39 0)
(1.38594e-40 -3.49027e-39 0)
(-1.05591e-40 -1.39151e-40 0)
(1.76908e-41 -9.98548e-41 0)
(7.14129e-40 -5.45429e-40 0)
(-3.17245e-39 -1.49103e-38 0)
(-2.04953e-39 4.705e-38 0)
(2.75719e-39 2.77365e-38 0)
(1.61715e-39 9.76609e-39 0)
(-7.30901e-40 -3.14477e-39 0)
(-2.50109e-40 2.5232e-38 0)
(2.08059e-39 3.68472e-40 0)
(-1.77529e-39 -1.92837e-38 0)
(-1.67899e-37 1.58459e-37 0)
(-6.4952e-39 8.89466e-39 0)
(-4.12805e-40 1.14036e-39 0)
(2.34949e-41 8.39104e-40 0)
(4.94901e-41 -4.03825e-40 0)
(6.11923e-43 -8.42257e-40 0)
(-3.73289e-41 -4.24385e-40 0)
(-2.53073e-41 4.02018e-40 0)
(1.15378e-41 4.22187e-40 0)
(1.27192e-41 2.01755e-41 0)
(6.32627e-43 2.28547e-42 0)
(7.11134e-44 9.4257e-44 0)
(-2.81965e-45 1.85176e-44 0)
(-1.398e-43 1.81608e-43 0)
(-1.19396e-42 4.47731e-42 0)
(-2.48085e-41 3.80716e-41 0)
(-1.04246e-41 8.24286e-40 0)
(6.15968e-41 3.84028e-40 0)
(3.73986e-41 -1.23307e-39 0)
(-3.63135e-41 -8.62528e-40 0)
(-3.86862e-41 -2.18775e-41 0)
(-1.8092e-41 4.22635e-40 0)
(2.48211e-41 5.1606e-40 0)
(2.98996e-41 -3.97003e-40 0)
(-2.38256e-41 -4.01387e-40 0)
(-2.4791e-41 4.04987e-40 0)
(6.35457e-42 4.26706e-40 0)
(1.82267e-41 1.27031e-40 0)
(6.14106e-42 -1.04574e-40 0)
(-5.07024e-42 -4.46073e-42 0)
(4.08619e-43 -4.39636e-42 0)
(1.99585e-41 -2.12512e-41 0)
(-9.75042e-41 -6.81933e-40 0)
(-6.09844e-41 2.99361e-39 0)
(8.31939e-41 1.3562e-39 0)
(4.55576e-41 4.68726e-40 0)
(-2.17887e-41 -2.15373e-40 0)
(-4.84116e-42 1.20422e-39 0)
(6.37636e-41 1.95146e-41 0)
(-5.48022e-41 -8.61199e-40 0)
(-4.70392e-36 -1.02046e-39 0)
(-1.67186e-37 -5.82074e-41 0)
(-9.79203e-39 2.2176e-41 0)
(-3.29936e-40 2.36126e-41 0)
(-1.36491e-41 -1.16044e-41 0)
(-4.74419e-43 -2.4213e-41 0)
(-1.50969e-42 -1.2203e-41 0)
(-1.01421e-42 1.15346e-41 0)
(4.56545e-43 1.21376e-41 0)
(5.03678e-43 6.03205e-43 0)
(2.49217e-44 6.80461e-44 0)
(2.82123e-45 2.88622e-45 0)
(-1.11296e-46 5.63435e-46 0)
(-5.54664e-45 5.56187e-45 0)
(-4.70152e-44 1.33226e-43 0)
(-9.82546e-43 1.13855e-42 0)
(-4.12154e-43 2.36748e-41 0)
(2.46192e-42 1.09964e-41 0)
(1.49257e-42 -3.54108e-41 0)
(-1.44897e-42 -2.48181e-41 0)
(-1.54156e-42 -6.43132e-43 0)
(-6.69558e-43 1.22354e-41 0)
(9.82446e-43 1.68507e-41 0)
(1.12538e-42 -1.13008e-41 0)
(-9.57226e-43 -1.15047e-41 0)
(-9.91555e-43 1.16339e-41 0)
(3.07324e-43 1.2346e-41 0)
(6.63449e-43 5.62099e-42 0)
(1.84712e-43 -4.94986e-42 0)
(-1.44951e-43 -2.06424e-43 0)
(1.26705e-44 -1.38582e-43 0)
(7.52851e-43 -5.94364e-43 0)
(-4.74298e-42 -1.9079e-41 0)
(-2.43811e-42 9.19422e-41 0)
(4.15555e-42 3.94426e-41 0)
(1.91044e-42 1.36539e-41 0)
(-8.6876e-43 -4.04427e-42 0)
(-2.51778e-43 3.46215e-41 0)
(2.4911e-42 5.31725e-43 0)
(-2.06308e-42 -2.65896e-41 0)
(-1.38436e-37 -1.83877e-37 0)
(-5.40445e-39 -1.04541e-38 0)
(-3.2706e-40 -3.50427e-40 0)
(-1.17402e-41 -1.53709e-41 0)
(-5.11488e-43 -9.77184e-43 0)
(-1.81958e-44 -9.79443e-43 0)
(-4.15793e-44 -4.83948e-43 0)
(-2.78256e-44 4.56964e-43 0)
(1.24576e-44 4.80745e-43 0)
(1.37895e-44 2.37668e-44 0)
(7.02359e-46 2.69984e-45 0)
(7.88841e-47 1.13923e-46 0)
(-3.17842e-48 2.22059e-47 0)
(-1.55028e-46 2.19553e-46 0)
(-1.32564e-45 5.28652e-45 0)
(-2.68799e-44 4.48411e-44 0)
(-1.12028e-44 9.37829e-43 0)
(6.74455e-44 4.35797e-43 0)
(4.08944e-44 -1.40281e-42 0)
(-3.96721e-44 -9.82869e-43 0)
(-4.23599e-44 -2.56258e-44 0)
(-2.0262e-44 4.8241e-43 0)
(2.68743e-44 6.11897e-43 0)
(3.26513e-44 -4.49925e-43 0)
(-2.61428e-44 -4.56082e-43 0)
(-2.72408e-44 4.60647e-43 0)
(6.58098e-45 4.8707e-43 0)
(2.00432e-44 1.69056e-43 0)
(6.95645e-45 -1.42593e-43 0)
(-5.76156e-45 -6.23509e-45 0)
(2.30779e-46 -5.03876e-45 0)
(1.98928e-44 -1.82677e-44 0)
(-1.39117e-43 -7.1963e-43 0)
(-6.67872e-44 4.48253e-42 0)
(1.22788e-43 1.59852e-42 0)
(5.10044e-44 5.43497e-43 0)
(-2.36461e-44 -2.16271e-43 0)
(-4.87008e-45 1.36989e-42 0)
(6.9998e-44 2.25782e-44 0)
(-5.99073e-44 -1.00147e-42 0)
(7.52451e-37 -5.07104e-39 0)
(2.5408e-38 -2.51573e-40 0)
(1.19026e-39 -8.89551e-42 0)
(3.78561e-41 -4.17761e-43 0)
(1.50147e-42 -2.76086e-44 0)
(4.47734e-44 -2.68817e-44 0)
(1.54119e-46 -1.3256e-44 0)
(-9.04339e-46 1.24936e-44 0)
(4.25973e-46 1.3164e-44 0)
(4.6985e-46 6.69893e-46 0)
(2.38216e-47 7.55018e-47 0)
(2.67025e-48 3.25188e-48 0)
(-1.07099e-49 6.2847e-49 0)
(-5.24801e-48 6.26866e-48 0)
(-4.49644e-47 1.47774e-46 0)
(-9.15916e-46 1.26449e-45 0)
(-3.82034e-46 2.56611e-44 0)
(2.29879e-45 1.18964e-44 0)
(1.39371e-45 -3.83787e-44 0)
(-1.35202e-45 -2.69309e-44 0)
(-1.44185e-45 -7.12235e-46 0)
(-6.4973e-46 1.32881e-44 0)
(9.15709e-46 1.85313e-44 0)
(1.07168e-45 -1.22193e-44 0)
(-8.92663e-46 -1.2459e-44 0)
(-9.2732e-46 1.26064e-44 0)
(2.63646e-46 1.34088e-44 0)
(6.41963e-46 6.3604e-45 0)
(1.95969e-46 -5.61512e-45 0)
(-1.57268e-46 -2.42096e-46 0)
(4.31283e-48 -1.4674e-46 0)
(6.40996e-46 -4.61331e-46 0)
(-5.57075e-45 -1.90297e-44 0)
(-2.27627e-45 1.31554e-43 0)
(5.01569e-45 4.4386e-44 0)
(1.8167e-45 1.5062e-44 0)
(-8.01821e-46 -4.03343e-45 0)
(-2.08358e-46 3.75167e-44 0)
(2.3465e-45 5.87982e-46 0)
(-1.96653e-45 -2.90404e-44 0)
(-4.59068e-38 4.34917e-38 0)
(-1.61691e-39 3.24834e-39 0)
(-7.65931e-41 1.10092e-40 0)
(-2.51727e-42 4.45498e-42 0)
(-1.00835e-43 1.33276e-43 0)
(-3.09312e-45 3.75105e-45 0)
(-1.44157e-46 -3.20617e-46 0)
(-2.76548e-47 4.29846e-46 0)
(1.0882e-47 4.48639e-46 0)
(1.21732e-47 2.27241e-47 0)
(6.30978e-49 2.55584e-48 0)
(7.00045e-50 1.09525e-49 0)
(-2.85253e-51 2.10232e-50 0)
(-1.37546e-49 2.11188e-49 0)
(-1.19192e-48 5.00275e-48 0)
(-2.37232e-47 4.28934e-47 0)
(-9.8478e-48 8.74446e-46 0)
(5.95433e-47 4.05537e-46 0)
(3.61094e-47 -1.30783e-45 0)
(-3.50106e-47 -9.17525e-46 0)
(-3.74459e-47 -2.43473e-47 0)
(-1.82e-47 4.51228e-46 0)
(2.37176e-47 5.92463e-46 0)
(2.9106e-47 -4.18015e-46 0)
(-2.30544e-47 -4.24824e-46 0)
(-2.407e-47 4.2942e-46 0)
(5.51267e-48 4.55508e-46 0)
(1.7995e-47 1.79139e-46 0)
(6.45019e-48 -1.53866e-46 0)
(-5.37177e-48 -6.86987e-48 0)
(4.26509e-51 -4.59325e-48 0)
(1.58784e-47 -1.09697e-47 0)
(-1.54736e-46 -6.13115e-46 0)
(-5.89541e-47 5.2762e-45 0)
(1.40241e-46 1.54779e-45 0)
(4.63358e-47 5.16051e-46 0)
(-2.0632e-47 -1.76754e-46 0)
(-3.93808e-48 1.27725e-45 0)
(6.20534e-47 2.10242e-47 0)
(-5.34553e-47 -9.53343e-46 0)
(-1.56381e-36 -3.74773e-40 0)
(-5.30158e-38 -4.25049e-41 0)
(-2.50596e-39 -1.49837e-42 0)
(-8.00601e-41 -6.16758e-44 0)
(-3.19924e-42 -1.87941e-45 0)
(-9.59521e-44 -8.87608e-47 0)
(-3.34254e-45 -1.35445e-47 0)
(-9.46666e-47 1.09658e-47 0)
(-2.57992e-48 1.16239e-47 0)
(2.89118e-49 6.01924e-49 0)
(1.67432e-50 6.70102e-50 0)
(2.02692e-51 2.9151e-51 0)
(-8.57584e-53 5.53829e-52 0)
(-4.08649e-51 5.62299e-51 0)
(-3.56869e-50 1.31127e-49 0)
(-7.12689e-49 1.1371e-48 0)
(-2.96033e-49 2.26517e-47 0)
(1.78866e-48 1.04856e-47 0)
(1.0847e-48 -3.38736e-47 0)
(-1.05166e-48 -2.37934e-47 0)
(-1.12382e-48 -6.37629e-49 0)
(-5.23129e-49 1.17544e-47 0)
(7.12523e-49 1.66398e-47 0)
(8.50871e-49 -1.07608e-47 0)
(-6.93431e-49 -1.09904e-47 0)
(-7.22376e-49 1.11251e-47 0)
(1.8826e-49 1.18597e-47 0)
(5.17031e-49 5.89172e-48 0)
(1.70156e-49 -5.22282e-48 0)
(-1.39002e-49 -2.31214e-49 0)
(-2.82138e-51 -1.23616e-49 0)
(4.46568e-49 -2.35409e-49 0)
(-5.31279e-48 -1.51983e-47 0)
(-1.7709e-48 1.46631e-46 0)
(4.87858e-48 4.07676e-47 0)
(1.44632e-48 1.35251e-47 0)
(-6.16456e-49 -3.21829e-48 0)
(-1.42601e-49 3.31115e-47 0)
(1.84154e-48 5.19816e-49 0)
(-1.56297e-48 -2.58814e-47 0)
(-1.48413e-38 -4.40182e-38 0)
(-5.58244e-40 -3.30885e-39 0)
(-2.61812e-41 -1.1232e-40 0)
(-8.97732e-43 -4.55703e-42 0)
(-3.56955e-44 -1.37011e-43 0)
(-1.12705e-45 -4.77421e-45 0)
(-3.91701e-47 -1.34539e-46 0)
(-1.162e-48 -3.82559e-48 0)
(-2.73602e-50 2.3976e-49 0)
(7.9814e-51 1.49551e-50 0)
(4.42751e-52 1.9152e-51 0)
(5.04068e-53 8.42728e-53 0)
(-2.11517e-54 1.61654e-53 0)
(-1.00353e-52 1.66335e-52 0)
(-8.88082e-52 3.89581e-51 0)
(-1.74175e-50 3.40462e-50 0)
(-7.20704e-51 6.80505e-49 0)
(4.37111e-50 3.15093e-49 0)
(2.65137e-50 -1.0176e-48 0)
(-2.56951e-50 -7.14693e-49 0)
(-2.7525e-50 -1.91834e-50 0)
(-1.36121e-50 3.52238e-49 0)
(1.74133e-50 4.77453e-49 0)
(2.16094e-50 -3.24213e-49 0)
(-1.69044e-50 -3.30332e-49 0)
(-1.76851e-50 3.34115e-49 0)
(3.80629e-51 3.55474e-49 0)
(1.34623e-50 1.55376e-49 0)
(4.98892e-51 -1.35371e-49 0)
(-4.18267e-51 -6.15558e-51 0)
(-1.50927e-52 -3.41588e-51 0)
(1.03023e-50 -3.48108e-51 0)
(-1.39147e-49 -4.27412e-49 0)
(-4.32736e-50 5.03968e-48 0)
(1.28467e-49 1.25384e-48 0)
(3.50854e-50 4.08749e-49 0)
(-1.49675e-50 -1.19242e-49 0)
(-2.60137e-51 9.94003e-49 0)
(4.57767e-50 1.61359e-50 0)
(-3.97279e-50 -7.56739e-49 0)
(7.86464e-37 -7.48991e-41 0)
(2.6657e-38 -5.98564e-41 0)
(1.25987e-39 -2.34834e-42 0)
(4.02449e-41 -9.69746e-44 0)
(1.60814e-42 -3.03411e-45 0)
(4.82281e-44 -1.05612e-46 0)
(1.67951e-45 -3.06073e-48 0)
(4.72093e-47 -8.64076e-50 0)
(1.46278e-48 5.99588e-51 0)
(3.87558e-50 3.76874e-52 0)
(1.08966e-51 4.7114e-53 0)
(2.79324e-53 2.09495e-54 0)
(6.2241e-55 3.96762e-55 0)
(-2.65082e-54 4.13224e-54 0)
(-2.38717e-53 9.56742e-53 0)
(-4.6926e-52 8.4728e-52 0)
(-1.94248e-52 1.6632e-50 0)
(1.17753e-51 7.68974e-51 0)
(7.14255e-52 -2.48678e-50 0)
(-6.92178e-52 -1.74827e-50 0)
(-7.41045e-52 -4.72535e-52 0)
(-3.55584e-52 8.64983e-51 0)
(4.6915e-52 1.24508e-50 0)
(5.71106e-52 -7.88257e-51 0)
(-4.55794e-52 -8.06523e-51 0)
(-4.76119e-52 8.16669e-51 0)
(1.13207e-52 8.72519e-51 0)
(3.51604e-52 4.5528e-51 0)
(1.23289e-52 -4.05592e-51 0)
(-1.022e-52 -1.83567e-52 0)
(-6.121e-54 -8.49961e-53 0)
(2.56069e-52 -4.03705e-53 0)
(-4.20411e-51 -9.86701e-51 0)
(-1.16572e-51 1.32051e-49 0)
(3.91697e-51 3.12175e-50 0)
(9.77932e-52 1.00997e-50 0)
(-4.00974e-52 -2.09226e-51 0)
(-8.14444e-53 2.43101e-50 0)
(1.2226e-51 3.77306e-52 0)
(-1.05021e-51 -1.92137e-50 0)
(3.01769e-38 2.55359e-38 0)
(1.0785e-39 1.2003e-39 0)
(5.07607e-41 3.83054e-41 0)
(1.68339e-42 1.53006e-42 0)
(6.70849e-44 4.58817e-44 0)
(2.06891e-45 1.59761e-45 0)
(7.19425e-47 4.49049e-47 0)
(2.06633e-48 1.39126e-48 0)
(6.39929e-50 3.686e-50 0)
(1.71955e-51 1.0363e-51 0)
(4.82467e-53 2.65709e-53 0)
(1.23072e-54 7.0131e-55 0)
(2.93471e-56 2.53035e-56 0)
(-6.06262e-56 1.09726e-55 0)
(-5.57369e-55 2.54217e-54 0)
(-1.0801e-53 2.27749e-53 0)
(-4.45711e-54 4.48088e-52 0)
(2.71012e-53 2.07207e-52 0)
(1.64419e-53 -6.69934e-52 0)
(-1.59281e-53 -4.70953e-52 0)
(-1.70873e-53 -1.27349e-53 0)
(-8.60913e-54 2.32643e-52 0)
(1.07985e-53 3.24874e-52 0)
(1.35638e-53 -2.12799e-52 0)
(-1.04685e-53 -2.17366e-52 0)
(-1.09751e-53 2.19962e-52 0)
(2.19778e-54 2.34693e-52 0)
(8.51757e-54 1.1247e-52 0)
(3.26432e-54 -9.91364e-53 0)
(-2.75651e-54 -4.58282e-54 0)
(-1.93468e-55 -2.10711e-54 0)
(5.46192e-54 1.22648e-54 0)
(-1.03602e-52 -2.45258e-52 0)
(-2.68276e-53 3.99247e-51 0)
(9.6958e-53 8.61548e-52 0)
(2.24926e-53 2.73857e-52 0)
(-9.16925e-54 -6.69484e-53 0)
(-1.41931e-54 6.54571e-52 0)
(2.85374e-53 1.03773e-53 0)
(-2.49626e-53 -5.07882e-52 0)
(-3.08307e-40 2.05371e-39 0)
(-1.08101e-41 9.59546e-41 0)
(-5.23505e-43 3.18021e-42 0)
(-1.70087e-44 1.26607e-43 0)
(-6.84535e-46 3.9068e-45 0)
(-2.06779e-47 1.35856e-46 0)
(-7.1879e-49 3.90529e-48 0)
(-2.02237e-50 1.21003e-49 0)
(-6.22004e-52 3.24953e-51 0)
(-1.61908e-53 9.11187e-53 0)
(-4.44675e-55 2.30456e-54 0)
(-1.03225e-56 5.9469e-56 0)
(-3.0995e-58 1.59956e-57 0)
(-1.48362e-57 2.56919e-57 0)
(-1.36159e-56 5.84839e-56 0)
(-2.64198e-55 5.3177e-55 0)
(-1.09043e-55 1.0314e-53 0)
(6.62822e-55 4.76378e-54 0)
(4.02135e-55 -1.54185e-53 0)
(-3.8955e-55 -1.08478e-53 0)
(-4.17768e-55 -2.94783e-55 0)
(-2.06329e-55 5.37653e-54 0)
(2.64136e-55 7.87947e-54 0)
(3.27547e-55 -4.87657e-54 0)
(-2.56178e-55 -4.99921e-54 0)
(-2.68325e-55 5.06326e-54 0)
(5.78135e-56 5.42161e-54 0)
(2.04124e-55 2.97638e-54 0)
(7.56154e-56 -2.66571e-54 0)
(-6.34594e-56 -1.22986e-55 0)
(-5.95007e-57 -4.84944e-56 0)
(1.20517e-55 6.06592e-56 0)
(-2.80378e-54 -5.23508e-54 0)
(-6.56118e-55 9.84207e-53 0)
(2.64151e-54 2.02376e-53 0)
(5.67474e-55 6.36895e-54 0)
(-2.22967e-55 -1.11859e-54 0)
(-3.89852e-56 1.50752e-53 0)
(6.9394e-55 2.28931e-55 0)
(-6.02999e-55 -1.20604e-53 0)
(-2.98505e-38 2.75172e-38 0)
(-1.06654e-39 1.29344e-39 0)
(-4.99921e-41 4.11992e-41 0)
(-1.65915e-42 1.64578e-42 0)
(-6.60357e-44 4.92814e-44 0)
(-2.03936e-45 1.71615e-45 0)
(-7.09366e-47 4.8184e-47 0)
(-2.04108e-48 1.49273e-48 0)
(-6.32826e-50 3.92744e-50 0)
(-1.69859e-51 1.09827e-51 0)
(-4.76051e-53 2.70802e-53 0)
(-1.19345e-54 6.90852e-55 0)
(-3.05475e-56 1.59742e-56 0)
(-7.47944e-58 4.35453e-58 0)
(-3.15121e-58 1.41644e-57 0)
(-5.72197e-57 1.29897e-56 0)
(-2.35548e-57 2.52274e-55 0)
(1.4353e-56 1.1653e-55 0)
(8.7094e-57 -3.77101e-55 0)
(-8.43436e-57 -2.65313e-55 0)
(-9.06086e-57 -7.20744e-57 0)
(-4.65606e-57 1.31374e-55 0)
(5.72027e-57 1.88707e-55 0)
(7.27871e-57 -1.19434e-55 0)
(-5.53758e-57 -1.22309e-55 0)
(-5.81833e-57 1.23817e-55 0)
(1.07167e-57 1.32476e-55 0)
(4.60853e-57 6.89178e-56 0)
(1.82627e-57 -6.13444e-56 0)
(-1.55346e-57 -2.87917e-57 0)
(-1.57634e-58 -1.08995e-57 0)
(2.3506e-57 2.76945e-57 0)
(-6.49434e-56 -1.15537e-55 0)
(-1.42071e-56 2.66485e-54 0)
(6.1414e-56 5.07473e-55 0)
(1.23502e-56 1.56856e-55 0)
(-4.79701e-57 -3.13571e-56 0)
(-6.42149e-58 3.68573e-55 0)
(1.52041e-56 5.6592e-57 0)
(-1.341e-56 -2.91291e-55 0)
(-8.50339e-37 -3.17116e-38 0)
(-2.8747e-38 -1.55415e-39 0)
(-1.35872e-39 -5.01625e-41 0)
(-4.33205e-41 -2.00705e-42 0)
(-1.7312e-42 -6.03914e-44 0)
(-5.18445e-44 -2.10267e-45 0)
(-1.80562e-45 -5.92452e-47 0)
(-5.06988e-47 -1.83519e-48 0)
(-1.57076e-48 -4.84196e-50 0)
(-4.13291e-50 -1.354e-51 0)
(-1.15579e-51 -3.34604e-53 0)
(-2.8499e-53 -8.53693e-55 0)
(-7.27064e-55 -1.97695e-56 0)
(-1.68075e-56 -4.62501e-58 0)
(-4.00925e-58 2.02829e-59 0)
(-1.36766e-58 2.84313e-58 0)
(-5.29705e-59 5.46339e-57 0)
(3.21593e-58 2.52121e-57 0)
(1.95152e-58 -8.1657e-57 0)
(-1.88979e-58 -5.74895e-57 0)
(-2.02996e-58 -1.56716e-58 0)
(-1.03078e-58 2.85494e-57 0)
(1.28189e-58 4.26447e-57 0)
(1.61859e-58 -2.57684e-57 0)
(-1.24113e-58 -2.6471e-57 0)
(-1.3035e-58 2.68146e-57 0)
(2.52122e-59 2.87779e-57 0)
(1.02031e-58 1.66379e-57 0)
(3.96777e-59 -1.49827e-57 0)
(-3.36555e-59 -7.03212e-59 0)
(-4.15295e-60 -2.32011e-59 0)
(4.57585e-59 7.93376e-59 0)
(-1.59436e-57 -2.25552e-57 0)
(-3.18323e-58 6.17426e-56 0)
(1.51534e-57 1.1235e-56 0)
(2.84898e-58 3.4307e-57 0)
(-1.06841e-58 -4.92118e-58 0)
(-1.56168e-59 7.9858e-57 0)
(3.39495e-58 1.17592e-58 0)
(-2.98309e-58 -6.47253e-57 0)
(9.93679e-37 -8.06499e-38 0)
(3.38162e-38 -5.12747e-39 0)
(1.59792e-39 -1.70787e-40 0)
(5.11932e-41 -6.89769e-42 0)
(2.04526e-42 -2.07153e-43 0)
(6.14736e-44 -7.21623e-45 0)
(2.1405e-45 -2.02794e-46 0)
(6.02715e-47 -6.28211e-48 0)
(1.86707e-48 -1.65391e-49 0)
(4.92342e-50 -4.62468e-51 0)
(1.37676e-51 -1.14085e-52 0)
(3.40073e-53 -2.91023e-54 0)
(8.6759e-55 -6.72963e-56 0)
(2.00834e-56 -1.57844e-57 0)
(4.70998e-58 -3.35633e-59 0)
(7.61505e-60 5.62976e-60 0)
(-8.50857e-61 1.22409e-58 0)
(6.55335e-60 5.64968e-59 0)
(3.97465e-60 -1.82963e-58 0)
(-3.84787e-60 -1.2882e-58 0)
(-4.13937e-60 -3.50874e-60 0)
(-2.17156e-60 6.39456e-59 0)
(2.61068e-60 9.4373e-59 0)
(3.36778e-60 -5.77824e-59 0)
(-2.52354e-60 -5.93268e-59 0)
(-2.65759e-60 6.00753e-59 0)
(4.43981e-61 6.44532e-59 0)
(2.15041e-60 3.61327e-59 0)
(8.80803e-61 -3.2434e-59 0)
(-7.54635e-61 -1.54406e-60 0)
(-9.81592e-62 -4.75893e-61 0)
(7.98175e-61 2.39905e-60 0)
(-3.46966e-59 -4.39338e-59 0)
(-6.4819e-60 1.5163e-57 0)
(3.30816e-59 2.58346e-58 0)
(5.85932e-60 7.74371e-59 0)
(-2.16139e-60 -1.21892e-59 0)
(-2.39837e-61 1.78894e-58 0)