/*--------------------------------*- C++ -*----------------------------------*\
| =========                 |                                                 |
| \\      /  F ield         | OpenFOAM: The Open Source CFD Toolbox           |
|  \\    /   O peration     | Version:  2.4.0                                 |
|   \\  /    A nd           | Web:      www.OpenFOAM.org                      |
|    \\/     M anipulation  |                                                 |
\*---------------------------------------------------------------------------*/
FoamFile
{
    version     2.0;
    format      ascii;
    class       surfaceScalarField;
    location    "0.2";
    object      phi;
}
// * * * * * * * * * * * * * * * * * * * * * * * * * * * * * * * * * * * * * //

dimensions      [0 3 -1 0 0 0 0];

internalField   nonuniform List<scalar> 
3742
(
-1.76054e-38
2.66847e-38
-1.6537e-39
1.23375e-39
-8.36591e-41
8.77451e-41
-5.8087e-42
3.87648e-42
-2.72062e-43
2.21356e-43
-1.53604e-44
9.22011e-45
-6.64995e-46
4.47833e-46
-3.21147e-47
1.74695e-47
-1.28682e-48
7.45843e-49
-5.48012e-50
2.71962e-50
-2.03741e-51
1.04237e-51
-7.8047e-53
3.554e-53
-2.69824e-54
1.24057e-54
-4.13375e-56
3.95526e-56
1.65905e-54
-2.99028e-58
4.80584e-53
-4.72727e-56
1.40817e-51
-1.44383e-54
3.71541e-50
-4.04197e-53
1.01455e-48
-1.16361e-51
2.41229e-47
-2.99677e-50
6.12677e-46
-8.10925e-49
1.28946e-44
-1.8937e-47
3.0422e-43
-4.80037e-46
5.51705e-42
-9.95846e-45
-2.36049e-43
-2.38936e-35
7.70027e-38
-1.5505e-34
7.96239e-37
-1.23384e-34
1.58706e-35
-1.39794e-32
4.45905e-36
9.24045e-33
-3.13585e-35
4.64124e-33
-5.74754e-36
-4.5507e-33
2.05576e-35
4.83171e-35
4.56967e-37
4.18452e-35
-1.06693e-35
4.78063e-33
-5.79531e-36
1.71292e-34
-1.3156e-36
4.83757e-33
-5.4588e-35
1.22714e-34
-7.20436e-37
4.75563e-33
5.4929e-36
-4.61595e-33
5.54276e-36
4.62463e-33
5.43374e-37
-4.69788e-33
5.25886e-36
-3.24639e-35
1.32562e-39
-4.94335e-35
-5.23076e-36
-7.8626e-36
-2.5768e-37
-3.72719e-37
-2.66847e-38
-3.48915e-38
-1.23375e-39
-1.64096e-39
-8.77451e-41
-1.13596e-40
-3.87648e-42
-5.08133e-42
-2.21356e-43
-2.86036e-43
-9.22011e-45
-1.19976e-44
-4.47833e-46
-5.77603e-46
-1.74695e-47
-2.26174e-47
-7.45843e-49
-9.60034e-49
-2.71962e-50
-3.50755e-50
-1.04237e-51
-1.33902e-51
-3.554e-53
-4.56954e-53
-1.24059e-54
-1.58821e-54
-4.01632e-56
2.73229e-56
-1.65928e-56
2.41377e-54
-3.71934e-55
7.27983e-53
-9.40882e-54
1.99766e-51
-2.04171e-52
5.48406e-50
-4.81446e-51
1.33149e-48
-9.28256e-50
3.3423e-47
-2.07132e-48
7.09284e-46
-3.59002e-47
1.62946e-44
-7.82265e-46
2.95443e-43
-1.27499e-44
-2.80418e-43
-9.8865e-37
1.24209e-37
-6.37179e-36
8.38326e-37
-1.07373e-34
1.6508e-35
-1.35668e-34
4.63169e-36
6.44524e-35
-3.2609e-35
1.01291e-34
-5.9804e-36
-2.93715e-35
2.1375e-35
-3.2108e-35
4.78354e-37
3.58365e-35
-1.10961e-35
7.3009e-35
-6.01776e-36
7.53234e-35
-8.51223e-37
7.51897e-35
-7.76392e-37
7.31704e-35
-2.28137e-37
3.7793e-35
5.72648e-36
2.0521e-36
5.76626e-36
-1.68903e-36
5.6886e-37
-3.54181e-35
5.46882e-36
-3.54357e-35
1.39322e-39
-2.03307e-36
-5.43938e-36
-3.24791e-37
-2.69759e-37
-1.76054e-38
-2.79432e-38
-1.6537e-39
-1.29666e-39
-8.36591e-41
-9.22257e-41
-5.8087e-42
-4.0842e-42
-2.72062e-43
-2.33238e-43
-1.53604e-44
-9.7316e-45
-6.64995e-46
-4.72735e-46
-3.21147e-47
-1.84643e-47
-1.28682e-48
-7.88435e-49
-5.48012e-50
-2.87775e-50
-2.03741e-51
-1.10316e-51
-7.80471e-53
-3.7642e-53
-2.70082e-54
-1.31464e-54
-1.15669e-55
-5.37369e-56
-5.25093e-55
-3.18083e-55
-1.06998e-53
-7.46042e-54
-2.34845e-52
-1.84489e-52
-3.95442e-51
-3.78056e-51
-7.59038e-50
-8.51788e-50
-9.29835e-49
-1.45632e-48
-1.43804e-47
-2.95645e-47
-6.61132e-47
-3.89232e-46
-1.54693e-47
-6.97666e-45
3.34255e-44
-5.77343e-44
-8.6074e-43
-1.02387e-37
3.8749e-37
-2.37169e-37
1.32892e-37
-2.07107e-36
7.76274e-37
-2.58288e-36
1.93521e-37
1.16197e-36
-1.37278e-36
1.87016e-36
-2.55684e-37
-4.97456e-37
8.97441e-37
-5.16301e-37
2.34375e-38
7.34402e-37
-4.68858e-37
1.54174e-36
-2.58142e-37
1.62911e-36
-4.31114e-38
1.47524e-36
-5.33526e-37
1.40601e-36
-1.23894e-38
7.86492e-37
2.42658e-37
6.8498e-38
2.452e-37
-3.71835e-38
2.80058e-38
-6.93621e-37
2.30575e-37
-6.95289e-37
7.55453e-41
-6.70395e-38
-2.29092e-37
-2.80195e-38
-1.32649e-38
-1.66875e-39
-1.40213e-39
-1.86806e-40
-7.02634e-41
-9.77177e-42
-5.03861e-42
-7.21632e-43
-2.33877e-43
-3.42242e-44
-1.34182e-44
-1.98102e-45
-5.77783e-46
-8.59935e-47
-2.8159e-47
-4.18914e-48
-1.12461e-48
-1.67375e-49
-4.81495e-50
-7.12876e-51
-1.78628e-51
-2.63345e-52
-6.86383e-53
-1.00385e-53
-2.37106e-54
-3.61117e-55
-8.92702e-56
-4.12514e-55
-1.68337e-55
-9.79178e-54
-4.43531e-54
-2.0199e-52
-1.04107e-52
-4.46708e-51
-2.56443e-51
-7.71566e-50
-5.2604e-50
-1.51993e-48
-1.18394e-48
-2.03675e-47
-2.04164e-47
-3.46806e-46
-4.15622e-46
-2.9869e-45
-5.59618e-45
-4.02106e-44
-1.01003e-43
-7.48647e-44
-8.76456e-43
-1.30452e-41
-8.99454e-37
6.39602e-37
-5.69169e-37
3.94296e-37
-6.34745e-38
1.49193e-37
-4.03801e-38
2.16766e-38
1.38192e-38
-1.26985e-37
2.37993e-38
-2.37147e-38
-5.18298e-39
8.31753e-38
-4.17852e-39
2.1387e-39
1.16348e-38
-4.3478e-38
2.54178e-38
-2.42151e-38
2.78049e-38
-5.31023e-39
2.13234e-38
-7.40742e-38
1.95232e-38
-2.39207e-39
1.26283e-38
2.22993e-38
1.73658e-39
2.27811e-38
-5.46134e-40
2.62754e-39
-1.0015e-38
2.14122e-38
-1.00842e-38
8.29376e-42
-1.67947e-39
-2.12536e-38
-1.05716e-39
-1.23528e-39
-6.92249e-41
-1.49749e-40
-7.99072e-42
-7.68412e-42
-4.40277e-43
-5.83342e-43
-3.28195e-44
-2.73918e-44
-1.60886e-45
-1.60881e-45
-9.35319e-47
-6.94954e-47
-4.15276e-48
-3.41519e-48
-2.02824e-49
-1.36142e-49
-8.23401e-51
-5.83117e-51
-3.51324e-52
-2.15221e-52
-1.31286e-53
-8.23495e-54
-5.15497e-55
-2.86581e-55
-4.06155e-55
-1.33711e-55
-9.20399e-54
-3.25402e-54
-2.27189e-52
-8.80166e-53
-4.69113e-51
-2.0694e-51
-1.05269e-49
-5.17291e-50
-1.82274e-48
-1.06412e-48
-3.66841e-47
-2.44604e-47
-4.9434e-46
-4.24e-46
-8.69143e-45
-8.90481e-45
-7.58885e-44
-1.21203e-43
-1.07427e-42
-2.29556e-42
-2.16517e-42
-2.04305e-41
-3.27735e-40
-6.4105e-35
3.27883e-35
-1.06636e-36
5.68312e-37
-7.92994e-37
-5.67079e-38
-1.14272e-37
-2.91134e-39
-5.88759e-39
-5.42759e-39
-7.7149e-40
-9.66622e-40
1.54898e-40
3.2878e-39
3.20751e-40
9.11188e-41
1.34666e-40
-1.72584e-39
4.53829e-40
-9.72153e-40
5.66359e-40
-2.42815e-40
-3.65605e-41
-3.0382e-39
-1.21316e-40
-1.17327e-40
1.49133e-40
8.8413e-40
7.46853e-41
9.07716e-40
2.59823e-42
1.12735e-40
-2.21861e-41
8.49126e-40
-2.67887e-41
3.8353e-43
-7.16904e-41
-8.42142e-40
-6.92272e-41
-5.2919e-41
-4.61074e-42
-6.57559e-42
-5.66192e-43
-3.55088e-43
-3.14844e-44
-2.72096e-44
-2.40562e-45
-1.32061e-45
-1.18287e-46
-7.78771e-47
-6.93885e-48
-3.43988e-48
-3.07669e-49
-1.69387e-49
-1.50397e-50
-6.85765e-51
-6.07863e-52
-2.94045e-52
-2.58357e-53
-1.09712e-53
-9.66491e-55
-4.2126e-55
-2.34579e-55
-5.04184e-56
-5.30148e-54
-1.03957e-54
-1.24991e-52
-2.71837e-53
-3.07147e-51
-7.31458e-52
-6.34872e-50
-1.7215e-50
-1.42253e-48
-4.29361e-49
-2.48542e-47
-8.91195e-48
-5.01672e-46
-2.05367e-46
-6.92433e-45
-3.64577e-45
-1.22909e-43
-7.73858e-44
-1.13626e-42
-1.1136e-42
-1.64236e-41
-2.15953e-41
-4.20003e-41
-2.18165e-40
-3.54835e-39
-8.47719e-37
1.4182e-36
-6.14649e-37
1.19321e-36
-3.70565e-38
-4.67136e-38
-5.223e-39
-3.44393e-39
-3.05497e-40
-7.2425e-40
-4.76862e-41
-8.08277e-41
8.73408e-42
2.1247e-40
1.59131e-41
5.80458e-42
9.65844e-43
-1.12229e-40
9.03892e-42
-6.387e-41
1.2844e-41
-1.94164e-41
-1.10473e-41
-2.58517e-40
-1.4018e-41
-1.11842e-41
9.67463e-43
5.68984e-41
2.50323e-42
5.90501e-41
3.93164e-43
7.35125e-42
3.39708e-42
5.52506e-41
3.21577e-42
2.66763e-44
-2.3952e-42
-5.47691e-41
-2.58945e-42
-3.43914e-42
-1.81692e-43
-4.53135e-43
-2.25748e-44
-2.46589e-44
-1.29852e-45
-1.93646e-45
-9.96423e-47
-9.43024e-47
-5.01163e-48
-5.61119e-48
-2.94462e-49
-2.4768e-49
-1.32585e-50
-1.22086e-50
-6.48348e-52
-4.92446e-52
-2.64783e-53
-2.10401e-53
-1.13014e-54
-7.81028e-55
-1.93083e-55
-4.95649e-56
-3.98232e-54
-5.7292e-55
-1.07611e-52
-1.67427e-53
-2.54354e-51
-4.39376e-52
-6.34614e-50
-1.20064e-50
-1.31614e-48
-2.83623e-49
-3.01284e-47
-7.22329e-48
-5.29268e-46
-1.50648e-46
-1.10224e-44
-3.57502e-45
-1.53783e-43
-6.39017e-44
-2.86704e-42
-1.41688e-42
-2.73305e-41
-2.06221e-41
-4.32728e-40
-4.29513e-40
-1.43878e-39
-4.44512e-39
-8.35918e-38
2.2402e-38
9.98499e-35
-5.48983e-38
1.54797e-36
-3.3603e-39
3.89144e-38
-6.47675e-40
7.56057e-40
-3.77021e-41
-2.45722e-42
-4.96488e-42
-2.29305e-42
4.12429e-43
8.11471e-42
9.11256e-43
2.33513e-43
-1.88491e-44
-4.27265e-42
4.66962e-43
-2.45514e-42
6.53898e-43
-8.29821e-43
-9.01762e-43
-1.04508e-41
-1.06273e-42
-5.00347e-43
-4.50354e-44
2.15882e-42
1.2563e-43
2.25324e-42
2.62543e-44
2.93897e-43
2.60305e-43
2.10192e-42
2.50685e-43
1.11458e-45
-1.21429e-43
-2.08244e-42
-1.37182e-43
-1.37407e-43
-9.64795e-45
-1.82966e-44
-1.22722e-45
-1.03005e-45
-7.07519e-47
-8.11895e-47
-5.47783e-48
-4.04451e-48
-2.75397e-49
-2.409e-49
-1.62e-50
-1.07966e-50
-7.27228e-52
-5.32063e-52
-3.54443e-53
-2.16798e-53
-1.44156e-54
-9.25436e-55
-1.01732e-55
-3.52243e-56
-1.18464e-54
-2.24597e-56
-3.10242e-53
-6.13747e-55
-8.33214e-52
-1.79247e-53
-1.97088e-50
-4.7612e-52
-4.90153e-49
-1.29409e-50
-1.02608e-47
-3.11001e-49
-2.3536e-46
-7.83883e-48
-4.24039e-45
-1.6768e-46
-8.93355e-44
-3.90518e-45
-1.32359e-42
-7.2568e-44
-2.55028e-41
-1.55641e-42
-2.85811e-40
-2.4133e-41
-5.00706e-39
-4.73962e-40
-3.5037e-38
-5.53926e-39
-9.32929e-38
-1.98784e-37
-3.25382e-35
1.75831e-37
4.26248e-37
7.22395e-39
9.68264e-38
4.82386e-40
4.75538e-39
1.33173e-41
4.51753e-40
-6.02958e-44
2.12493e-41
-9.97954e-45
1.9036e-42
2.93171e-44
7.84282e-44
-1.12336e-45
-2.19402e-43
1.7614e-44
-1.29271e-43
2.40274e-44
-5.0701e-44
-3.51301e-44
-6.61944e-43
-4.10255e-44
-3.34416e-44
-2.39942e-45
1.11543e-43
4.41998e-45
1.17638e-43
1.00788e-45
1.53588e-44
9.82528e-45
1.09784e-43
9.46922e-45
5.97906e-47
-4.28752e-45
-1.08742e-43
-4.90826e-45
-7.17153e-45
-3.57202e-46
-9.7874e-46
-4.55735e-47
-5.52319e-47
-2.68899e-48
-4.39323e-48
-2.08237e-49
-2.18873e-49
-1.06322e-50
-1.30527e-50
-6.24761e-52
-5.83568e-52
-2.83297e-53
-2.86673e-53
-1.37902e-54
-1.16279e-54
-8.04112e-56
-4.93638e-56
-6.96583e-55
-2.58891e-57
-2.0324e-53
-2.35588e-56
-5.35455e-52
-7.83083e-55
-1.46213e-50
-2.2075e-53
-3.4732e-49
-6.955e-52
-8.82752e-48
-1.76173e-50
-1.8563e-46
-5.257e-49
-4.38598e-45
-1.17537e-47
-7.94225e-44
-3.33582e-46
-1.74642e-42
-6.41451e-45
-2.6036e-41
-1.74636e-43
-5.36788e-40
-2.78034e-42
-6.06681e-39
-7.40932e-41
-1.20424e-37
-9.32774e-40
-8.53082e-37
-2.54383e-38
-2.36047e-37
-1.13633e-36
5.21057e-37
-4.75962e-37
-2.04089e-37
-3.15153e-38
7.80992e-38
-4.76409e-39
4.27241e-39
-2.73544e-40
4.31126e-40
-2.51138e-41
2.04676e-41
-1.30538e-42
1.43609e-42
-8.80805e-44
6.39856e-44
-4.28811e-45
-4.47508e-45
7.74323e-46
-4.56002e-45
1.27359e-45
-2.01464e-45
-1.80793e-45
-2.55223e-44
-2.08529e-45
-1.37747e-45
-1.30966e-46
4.00359e-45
1.94815e-46
4.24914e-45
4.53968e-47
5.72979e-46
4.45675e-46
3.95754e-45
4.29756e-46
2.2882e-48
-1.91288e-46
-3.91854e-45
-2.19489e-46
-2.67536e-46
-1.59805e-47
-3.65876e-47
-2.05593e-48
-2.11402e-48
-1.21312e-49
-1.68061e-49
-9.40474e-51
-8.5049e-51
-4.79289e-52
-5.06337e-52
-2.80751e-53
-2.28667e-53
-1.26822e-54
-1.12069e-54
-6.14888e-56
-4.57342e-56
-6.94517e-57
-1.94777e-57
-1.34788e-55
-5.36904e-58
-3.86628e-54
-1.43872e-56
-1.08612e-52
-5.03307e-55
-2.8585e-51
-1.40734e-53
-7.41953e-50
-4.66337e-52
-1.76965e-48
-1.16344e-50
-4.22066e-47
-3.66495e-49
-8.97015e-46
-8.01365e-48
-1.9535e-44
-2.4171e-46
-3.60358e-43
-4.54274e-45
-7.11455e-42
-1.34858e-43
-1.08769e-40
-2.30654e-42
-1.92073e-39
-7.80512e-41
-2.15173e-38
-1.84914e-39
-3.08716e-37
-7.34141e-38
-1.95442e-36
-7.11935e-35
-6.24496e-37
-1.16881e-36
-1.09516e-37
-8.79769e-37
-8.54789e-38
-1.26907e-37
-4.39912e-39
-6.27874e-39
-4.30987e-40
-5.63456e-40
-2.03873e-41
-2.70599e-41
-1.41344e-42
-1.83139e-42
-6.32261e-44
-8.28337e-44
-3.91633e-45
-4.56304e-45
-3.59661e-46
-1.47403e-46
-1.08838e-46
-7.39426e-47
-1.31309e-45
-7.47486e-47
-7.30945e-47
-4.9043e-48
1.75359e-46
6.51979e-48
1.88019e-46
1.57271e-48
2.53728e-47
1.51085e-47
1.75202e-46
1.45573e-47
1.02243e-49
-6.43931e-48
-1.7346e-46
-7.4196e-48
-1.18441e-47
-5.53577e-49
-1.63424e-48
-7.11015e-50
-9.44759e-50
-4.2644e-51
-7.51885e-51
-3.29701e-52
-3.79995e-52
-1.69783e-53
-2.25515e-53
-9.91292e-55
-1.01508e-54
-4.51037e-56
-4.94655e-56
-3.80415e-57
-2.00479e-57
-5.10296e-56
3.88495e-59
-1.59511e-54
4.10868e-57
-4.58259e-53
1.28002e-55
-1.34264e-51
4.00516e-54
-3.51731e-50
1.14735e-52
-9.62614e-49
3.36043e-51
-2.26828e-47
8.76843e-50
-5.79272e-46
2.40023e-48
-1.20369e-44
5.61841e-47
-2.87014e-43
1.43164e-45
-5.10154e-42
2.89093e-44
-1.14055e-40
6.43719e-43
-1.6453e-39
7.12537e-42
-3.47692e-38
-9.50268e-41
-3.54099e-37
-1.88198e-38
-6.84139e-36
-1.05583e-36
-4.37438e-35
-1.09301e-36
-6.28306e-37
-5.21849e-37
-4.4529e-37
-3.36839e-38
-9.72223e-38
-5.0009e-39
-4.76584e-39
-2.84282e-40
-4.53465e-40
-2.58921e-41
-2.14357e-41
-1.34047e-42
-1.48512e-42
-9.15555e-44
-6.65659e-44
-4.34145e-45
-3.75975e-45
-2.40983e-46
-1.64618e-46
-8.4665e-48
-1.13564e-47
-3.32597e-48
-4.80002e-47
-3.23728e-48
-2.79549e-48
-2.15011e-49
5.91739e-48
2.51281e-49
6.38929e-48
6.12253e-50
8.82842e-49
5.8994e-49
5.94583e-48
5.68439e-49
3.60748e-51
-2.51263e-49
-5.88532e-48
-2.89547e-49
-4.12258e-49
-2.1607e-50
-5.67181e-50
-2.77691e-51
-3.33476e-51
-1.6641e-52
-2.6446e-52
-1.28228e-53
-1.35092e-53
-6.58617e-55
-7.98644e-55
-3.82327e-56
-3.6173e-56
-1.72628e-57
-1.75539e-57
4.93974e-59
-6.80636e-59
4.10932e-57
1.12082e-58
1.27768e-55
3.84373e-57
3.66067e-54
1.19682e-55
1.06201e-52
3.74914e-54
2.77458e-51
1.07407e-52
7.49826e-50
3.15016e-51
1.76207e-48
8.21897e-50
4.42572e-47
2.25365e-48
9.17109e-46
5.27384e-47
2.13749e-44
1.34683e-45
3.78838e-43
2.71932e-44
8.19393e-42
6.08228e-43
1.17795e-40
6.80714e-42
2.36069e-39
-8.2814e-41
2.38543e-38
-1.74485e-38
4.14281e-37
-9.85565e-37
-4.1161e-35
-6.90377e-38
-3.68801e-35
3.89872e-38
-6.92253e-37
9.00003e-40
-2.10139e-38
-1.99063e-40
-5.58105e-40
-1.69474e-41
-2.66859e-41
-2.18191e-42
-1.16187e-42
-1.24805e-43
-7.74915e-44
-9.51699e-45
-3.62652e-45
-4.69979e-46
-2.06678e-46
-2.74952e-47
-9.25223e-48
-1.15071e-48
-5.98605e-49
-1.54929e-49
-2.1088e-48
-1.1051e-49
-1.25252e-49
-7.50503e-51
2.26913e-49
7.90882e-51
2.47508e-49
1.97963e-51
3.42309e-50
1.87723e-50
2.30448e-49
1.80762e-50
1.39888e-52
-7.9693e-51
-2.28101e-49
-9.21058e-51
-1.59894e-50
-6.99902e-52
-2.20092e-51
-8.95314e-53
-1.29379e-52
-5.42764e-54
-1.02239e-53
-4.1618e-55
-5.21189e-55
-2.15204e-56
-3.06318e-56
-1.24005e-57
-1.38206e-57
4.27823e-59
-6.66819e-59
3.31204e-57
-6.23495e-60
1.0342e-55
-1.18947e-58
3.23917e-54
-3.96982e-57
9.3057e-53
-1.23603e-55
2.72721e-51
-3.8723e-54
7.14384e-50
-1.10933e-52
1.95573e-48
-3.2539e-51
4.60759e-47
-8.48924e-50
1.17709e-45
-2.32806e-48
2.44513e-44
-5.44742e-47
5.83249e-43
-1.39123e-45
1.03616e-41
-2.80697e-44
2.3174e-40
-6.26542e-43
3.3403e-39
-6.87994e-42
7.0609e-38
9.61931e-41
7.18238e-37
1.86697e-38
1.38786e-35
1.05012e-36
4.37554e-35
4.5848e-38
-8.8083e-37
-4.90374e-38
-3.77859e-37
-2.28485e-39
-1.03581e-38
-2.62786e-40
-2.28446e-40
-1.21635e-41
-6.39588e-42
-9.30602e-43
-2.02883e-43
-4.20206e-44
-1.16777e-44
-2.54261e-45
-5.2191e-46
-1.0916e-46
-2.9341e-47
-5.56625e-48
-1.26429e-48
-2.21784e-49
-6.60606e-50
-1.36516e-50
-7.37013e-50
-4.49568e-51
-4.49734e-51
-2.99363e-52
7.18126e-51
2.71637e-52
7.89561e-51
6.87638e-53
1.11174e-51
6.53828e-52
7.34507e-51
6.29588e-52
4.57125e-54
-2.77553e-52
-7.26921e-51
-3.20822e-52
-5.19611e-52
-2.43848e-53
-7.10887e-53
-3.10708e-54
-4.23032e-54
-1.88127e-55
-3.32385e-55
-1.43369e-56
-1.70641e-56
-7.39108e-58
-9.9734e-58
-4.23118e-59
-4.51505e-59
1.22749e-61
-2.26447e-60
6.70966e-59
-3.69905e-60
2.0851e-57
-1.21283e-58
6.42621e-56
-4.05002e-57
1.83646e-54
-1.26083e-55
5.27379e-53
-3.94832e-54
1.37436e-51
-1.13096e-52
3.66485e-50
-3.31561e-51
8.59144e-49
-8.64925e-50
2.11902e-47
-2.37035e-48
4.38089e-46
-5.54566e-47
9.94922e-45
-1.41494e-45
1.75933e-43
-2.85305e-44
3.65699e-42
-6.34837e-43
5.24278e-41
-6.8662e-42
9.79952e-40
1.05753e-40
9.81717e-39
1.93499e-38
1.43653e-37
1.0807e-36
4.46843e-35
-2.85776e-39
-8.89283e-37
3.02e-39
-3.96905e-37
1.38766e-40
-1.04943e-38
1.42981e-41
-2.16527e-40
6.16598e-43
-4.11574e-42
4.15938e-44
-7.81397e-44
1.69401e-45
-2.39095e-45
8.94685e-47
-8.24109e-47
3.38087e-48
-3.9756e-48
1.48565e-49
-1.5803e-49
5.23023e-51
-7.29274e-51
7.77432e-53
-3.01259e-51
-1.24084e-52
-1.82494e-52
-8.98423e-54
2.46036e-52
8.05394e-54
2.73542e-52
2.0811e-54
3.85629e-53
1.95509e-53
2.54608e-52
1.88164e-53
1.57753e-55
-8.27928e-54
-2.51988e-52
-9.59219e-54
-1.8035e-53
-7.39168e-55
-2.45632e-54
-9.3543e-56
-1.46094e-55
-5.70986e-57
-1.14049e-56
-4.32279e-58
-5.84035e-58
-2.24147e-59
-3.38751e-59
-2.75402e-60
-1.52607e-60
-4.98293e-59
-4.30782e-62
-1.66281e-57
1.0456e-60
-5.18767e-56
3.5232e-59
-1.62479e-54
1.17837e-57
-4.66763e-53
3.67048e-56
-1.36797e-51
1.15159e-54
-3.58328e-50
3.30041e-53
-9.81039e-49
9.69859e-52
-2.31132e-47
2.53143e-50
-5.90541e-46
6.95988e-49
-1.22681e-44
1.63113e-47
-2.92698e-43
4.19889e-46
-5.20084e-42
8.68523e-45
-1.16357e-40
2.12432e-43
-1.67781e-39
3.96775e-42
-3.54843e-38
1.04481e-40
-3.61207e-37
2.37846e-39
-6.9838e-36
8.05893e-38
2.09036e-36
-4.90231e-38
-3.89665e-35
5.18673e-38
-7.2754e-37
2.38358e-39
-1.82242e-38
2.60788e-40
-3.49301e-40
1.16655e-41
-4.03209e-42
8.5079e-43
8.11567e-45
3.69055e-44
4.70762e-45
2.13703e-45
2.29749e-46
8.80603e-47
1.20702e-47
4.3128e-48
4.78175e-49
1.67137e-49
2.10506e-50
7.16816e-51
6.89572e-52
2.55991e-52
2.48966e-53
9.6983e-54
8.37326e-54
5.91441e-55
8.2276e-54
7.74741e-56
1.17199e-54
6.17663e-55
7.61857e-54
5.94106e-55
4.79313e-57
-2.61389e-55
-7.53955e-54
-3.029e-55
-5.47949e-55
-2.33507e-56
-7.40101e-56
-2.93489e-57
-4.44091e-57
-1.7888e-58
-3.4413e-58
-1.34347e-59
-1.76986e-59
-6.95521e-61
-1.01941e-60
-1.29007e-61
-4.49752e-62
-3.01382e-60
3.46395e-62
-9.97326e-59
1.30763e-60
-3.10013e-57
4.3899e-59
-9.60413e-56
1.46489e-57
-2.74915e-54
4.5588e-56
-7.94785e-53
1.4264e-54
-2.07469e-51
4.08452e-53
-5.58177e-50
1.19629e-51
-1.31076e-48
3.12005e-50
-3.27268e-47
8.54233e-49
-6.77801e-46
2.00031e-47
-1.56676e-44
5.11743e-46
-2.77596e-43
1.05361e-44
-5.93106e-42
2.52385e-43
-8.52559e-41
4.42843e-42
-1.67377e-39
1.00305e-40
-1.68927e-38
1.43707e-39
-2.80003e-37
3.1646e-38
3.36666e-37
5.11025e-38
-5.87684e-37
-5.40877e-38
-3.81101e-37
-2.50765e-39
-9.47514e-39
-2.7577e-40
-1.73423e-40
-1.24288e-41
-3.83896e-43
-9.11168e-43
1.06444e-43
-3.98027e-44
1.07481e-44
-2.31651e-45
5.31679e-46
-9.60842e-47
3.10778e-47
-4.72889e-48
1.35231e-48
-1.84383e-49
6.5885e-50
-7.94982e-51
2.63094e-51
-2.90464e-52
1.1197e-52
-1.12236e-53
4.37294e-54
-3.76405e-55
4.15558e-55
-1.16094e-56
4.22938e-56
1.69174e-56
2.39913e-55
1.66765e-56
1.55648e-58
-7.33287e-57
-2.37256e-55
-8.51286e-57
-1.72726e-56
-6.6324e-58
-2.31499e-57
-8.26586e-59
-1.38808e-58
-5.06576e-60
-1.06661e-59
-3.77446e-61
-5.4697e-61
-1.94828e-62
-3.11989e-62
-3.51961e-64
-3.3556e-64
2.50797e-62
3.83556e-62
8.44908e-61
1.36559e-60
2.65411e-59
4.58494e-59
8.35224e-58
1.53086e-57
2.41149e-56
4.7649e-56
7.0846e-55
1.49199e-54
1.86e-53
4.27307e-53
5.08734e-52
1.25271e-51
1.19608e-50
3.26779e-50
3.03682e-49
8.95799e-49
6.24859e-48
2.09806e-47
1.46833e-46
5.37648e-46
2.54743e-45
1.10722e-44
5.5217e-44
2.65838e-43
7.53529e-43
4.66635e-42
1.49467e-41
1.06058e-40
1.33777e-40
1.52149e-39
2.29468e-39
3.36998e-38
3.60205e-37
5.08566e-38
-6.55454e-37
-5.44527e-38
-2.9338e-38
-2.56279e-39
3.19423e-39
-2.96319e-40
2.34746e-40
-1.38141e-41
2.56743e-41
-1.06046e-42
1.33624e-42
-4.81296e-44
9.44905e-44
-2.91916e-45
4.453e-45
-1.25794e-46
2.53011e-46
-6.42892e-48
1.09838e-47
-2.60063e-49
5.32122e-49
-1.16116e-50
2.13508e-50
-4.39174e-52
9.10665e-52
-1.75284e-53
3.38813e-53
-6.19218e-55
1.30567e-54
-2.23901e-56
4.59646e-56
-2.39541e-58
8.30683e-57
4.58416e-58
5.48641e-59
-2.12975e-58
-6.66666e-57
-2.46463e-58
-4.91409e-58
-1.92121e-59
-6.52121e-59
-2.37315e-60
-3.93477e-60
-1.45192e-61
-2.9973e-61
-1.06482e-62
-1.54038e-62
1.94914e-63
-8.80339e-64
8.80851e-62
-3.40563e-64
2.9474e-60
-1.08311e-62
9.74061e-59
-3.82662e-61
3.02263e-57
-1.28163e-59
9.34808e-56
-4.24856e-58
2.67219e-54
-1.31914e-56
7.71443e-53
-4.09341e-55
2.01208e-51
-1.1695e-53
5.40798e-50
-3.38927e-52
1.27e-48
-8.81967e-51
3.16981e-47
-2.38133e-49
6.57489e-46
-5.56001e-48
1.5208e-44
-1.3922e-46
2.70581e-43
-2.81872e-45
5.79417e-42
-6.24693e-44
8.40705e-41
-8.21694e-43
1.65766e-39
-2.00223e-42
1.70418e-38
9.71437e-40
2.83121e-37
5.33769e-38
1.96513e-36
-7.43846e-38
3.41142e-37
3.78497e-38
-2.63652e-37
6.21591e-40
9.69851e-38
-2.89861e-40
5.35094e-39
-2.27558e-41
5.4082e-40
-2.79532e-42
2.57755e-41
-1.57725e-43
1.78956e-42
-1.18809e-44
8.02123e-44
-5.83389e-46
4.51362e-45
-3.40179e-47
1.89522e-46
-1.50519e-48
9.12167e-48
-7.36088e-50
3.5747e-49
-2.97527e-51
1.51716e-50
-1.27045e-52
5.54668e-52
-4.72829e-54
2.11747e-53
-1.80575e-55
7.23028e-55
-6.2096e-57
2.53619e-56
-2.03155e-58
8.04095e-58
-1.25214e-59
-1.66768e-58
-6.73542e-60
-1.34481e-59
-5.18668e-61
-1.84525e-60
-6.28341e-62
-1.11974e-61
-3.81927e-63
-8.47709e-63
9.29335e-64
-4.38351e-64
4.36677e-62
-1.66086e-64
1.5545e-60
-5.355e-63
5.22989e-59
-1.92872e-61
1.74826e-57
-6.85723e-60
5.45529e-56
-2.30288e-58
1.70989e-54
-7.6913e-57
4.91304e-53
-2.39449e-55
1.44127e-51
-7.49969e-54
3.7761e-50
-2.1483e-52
1.03512e-48
-6.29961e-51
2.43932e-47
-1.64345e-49
6.24277e-46
-4.50572e-48
1.29728e-44
-1.0547e-46
3.10209e-43
-2.69709e-45
5.51424e-42
-5.48969e-44
1.23762e-40
-1.26526e-42
1.78575e-39
-1.76478e-41
3.79487e-38
-1.21262e-40
3.86809e-37
1.74109e-38
7.54106e-36
1.09113e-36
4.77249e-35
-1.18802e-36
-4.00322e-35
-7.55019e-37
1.67358e-37
-4.64431e-38
1.04014e-37
-6.66029e-39
5.32198e-39
-3.70891e-40
5.1924e-40
-3.32373e-41
2.45418e-41
-1.70303e-42
1.701e-42
-1.15327e-43
7.60541e-44
-5.43523e-45
4.27922e-45
-3.02351e-46
1.79397e-46
-1.31272e-47
8.6337e-48
-6.27993e-49
3.3795e-49
-2.51904e-50
1.43416e-50
-1.06598e-51
5.23849e-52
-3.9635e-53
1.99952e-53
-1.51155e-54
6.82243e-55
-5.22664e-56
2.37501e-56
-1.81948e-57
7.58096e-58
-5.88501e-59
1.92073e-59
-2.05784e-60
3.47604e-61
-7.05446e-62
-2.76914e-62
-3.35339e-63
-2.37737e-63
-1.89902e-64
-2.06155e-64
-1.53092e-63
-1.22353e-65
-5.48906e-62
-4.89318e-65
-1.95099e-60
-1.82688e-63
-6.56054e-59
-6.58415e-62
-2.18978e-57
-2.3432e-60
-6.82952e-56
-7.87277e-59
-2.1366e-54
-2.6325e-57
-6.13588e-53
-8.19921e-56
-1.7957e-51
-2.57173e-54
-4.70211e-50
-7.36985e-53
-1.28499e-48
-2.16496e-51
-3.02637e-47
-5.65036e-50
-7.71367e-46
-1.55286e-48
-1.60185e-44
-3.63932e-47
-3.80928e-43
-9.36575e-46
-6.76544e-42
-1.93972e-44
-1.50662e-40
-4.7618e-43
-2.17101e-39
-9.06983e-42
-4.55923e-38
-2.48734e-40
-4.63427e-37
-6.26791e-39
-8.84711e-36
-2.2765e-37
-6.51668e-36
-8.51668e-35
8.47914e-35
-1.59053e-36
1.49911e-36
-1.06351e-36
-6.14577e-38
-1.53105e-37
-4.48417e-39
-7.57077e-39
-5.07271e-40
-6.78669e-40
-2.44429e-41
-3.25791e-41
-1.70472e-42
-2.20362e-42
-7.62833e-44
-9.96354e-44
-4.2917e-45
-5.53214e-45
-1.79889e-46
-2.33385e-46
-8.65506e-48
-1.11388e-47
-3.38727e-49
-4.375e-49
-1.43716e-50
-1.8464e-50
-5.24871e-52
-6.75605e-52
-2.00311e-53
-2.56895e-53
-6.83387e-55
-8.77204e-55
-2.37818e-56
-3.04469e-56
-7.59199e-58
-9.72238e-58
-2.44644e-59
-3.10991e-59
-7.38255e-61
-9.30848e-61
-2.2945e-62
-2.76588e-62
-6.87178e-64
-8.83683e-64
-2.25423e-65
-3.99798e-63
5.17077e-66
-1.43436e-61
2.27557e-64
-5.10222e-60
8.59981e-63
-1.71634e-58
3.09817e-61
-5.73421e-57
1.10158e-59
-1.78905e-55
3.69962e-58
-5.60341e-54
1.23572e-56
-1.60976e-52
3.84725e-55
-4.71778e-51
1.2051e-53
-1.2358e-49
3.45214e-52
-3.38327e-48
1.0124e-50
-7.97086e-47
2.64116e-49
-2.03639e-45
7.24121e-48
-4.23025e-44
1.69408e-46
-1.00914e-42
4.32286e-45
-1.79288e-41
8.69646e-44
-4.01032e-40
1.91907e-42
-5.78121e-39
1.9123e-41
-1.22229e-37
-4.57183e-40
-1.24362e-36
-6.74395e-38
-2.40364e-35
-3.72515e-36
-1.53426e-34
-1.24699e-36
4.41992e-35
-6.92591e-37
1.52928e-36
-4.35305e-38
-6.43535e-38
-6.34098e-39
-4.6999e-39
-3.5648e-40
-5.30634e-40
-3.21852e-41
-2.56539e-41
-1.65711e-42
-1.78965e-42
-1.12666e-43
-8.0275e-44
-5.32509e-45
-4.51758e-45
-2.96953e-46
-1.89683e-46
-1.29173e-47
-9.12869e-48
-6.1898e-49
-3.57726e-49
-2.48622e-50
-1.51815e-50
-1.05336e-51
-5.55006e-52
-3.92048e-53
-2.11863e-53
-1.49649e-54
-7.23377e-55
-5.17861e-56
-2.51796e-56
-1.80435e-57
-8.04341e-58
-5.82372e-59
-2.57847e-59
-1.8698e-60
-7.72243e-61
-5.64521e-62
-2.29828e-62
-1.6815e-63
-6.47363e-64
-1.19002e-65
-1.79658e-65
1.35049e-63
2.35737e-66
4.87596e-62
1.09209e-64
1.73434e-60
4.12779e-63
5.83377e-59
1.48723e-61
1.94894e-57
5.28883e-60
6.08024e-56
1.7764e-58
1.9043e-54
5.9345e-57
5.4705e-53
1.84779e-55
1.60323e-51
5.78912e-54
4.1995e-50
1.65848e-52
1.14972e-48
4.86493e-51
2.70873e-47
1.26922e-49
6.92064e-46
3.48045e-48
1.43773e-44
8.13901e-47
3.43012e-43
2.07369e-45
6.09504e-42
4.13162e-44
1.36359e-40
8.78235e-43
1.96635e-39
5.59204e-42
4.15848e-38
-4.73797e-40
4.23353e-37
-4.77875e-38
8.18403e-36
-2.55754e-36
-1.03537e-34
-1.3396e-37
1.96799e-36
1.00924e-37
8.87828e-37
3.58534e-39
1.89419e-38
3.55581e-41
2.07109e-40
-8.00684e-42
-1.87554e-41
-1.71785e-42
-1.25295e-42
-1.10572e-43
-9.45058e-44
-9.14749e-45
-4.49268e-45
-4.70037e-46
-2.55558e-46
-2.84616e-47
-1.10861e-47
-1.28886e-48
-5.36585e-49
-6.43179e-50
-2.15124e-50
-2.63667e-51
-9.16911e-52
-1.14016e-52
-3.40865e-53
-4.28398e-54
-1.30585e-54
-1.65024e-55
-4.51523e-56
-5.72614e-57
-1.57658e-57
-1.99935e-58
-5.08527e-59
-6.44114e-60
-1.6346e-60
-2.06264e-61
-4.93211e-62
-6.1951e-63
-1.4706e-63
-1.80714e-64
-4.16327e-65
1.01669e-64
-1.30747e-66
4.03851e-63
-5.98621e-66
1.45678e-61
-2.29176e-64
5.18186e-60
-8.66092e-63
1.74307e-58
-3.12035e-61
5.82347e-57
-1.10964e-59
1.81684e-55
-3.72687e-58
5.69055e-54
-1.24506e-56
1.63476e-52
-3.87655e-55
4.79125e-51
-1.21457e-53
1.25504e-49
-3.47948e-52
3.43622e-48
-1.02075e-50
8.09577e-47
-2.66319e-49
2.06858e-45
-7.30578e-48
4.29737e-44
-1.7107e-46
1.02536e-42
-4.38202e-45
1.82194e-41
-8.96394e-44
4.0766e-40
-2.10477e-42
5.87834e-39
-3.26274e-41
1.24342e-37
-4.75846e-40
1.26576e-36
1.15823e-38
2.44799e-35
9.45049e-37
4.57486e-35
-4.62235e-39
4.52026e-35
4.31923e-39
8.63055e-37
2.15306e-40
2.254e-38
7.76847e-42
4.54925e-40
7.20528e-46
7.13371e-42
-5.28708e-44
6.69372e-44
-3.96921e-45
-3.21142e-45
-3.61074e-46
-2.42823e-46
-1.95935e-47
-1.70776e-47
-1.22435e-48
-8.1106e-49
-5.72249e-50
-4.24864e-50
-2.9001e-51
-1.78189e-51
-1.21414e-52
-7.91943e-53
-5.29829e-54
-3.02011e-54
-2.0204e-55
-1.1843e-55
-7.82936e-57
-4.15377e-57
-2.74577e-58
-1.46857e-58
-9.62672e-60
-4.77044e-60
-3.12535e-61
-1.54181e-61
-1.00371e-62
-4.66163e-63
-3.03155e-64
-1.39054e-64
-9.98182e-66
-3.92975e-66
-3.82566e-65
-1.61931e-67
-1.4366e-63
-2.1287e-66
-5.18143e-62
-8.18053e-65
-1.84288e-60
-3.09151e-63
-6.19849e-59
-1.11379e-61
-2.07067e-57
-3.96071e-60
-6.45968e-56
-1.33025e-58
-2.02306e-54
-4.44395e-57
-5.81141e-53
-1.38363e-55
-1.70309e-51
-4.33496e-54
-4.46098e-50
-1.24186e-52
-1.2213e-48
-3.64306e-51
-2.87738e-47
-9.50513e-50
-7.35168e-46
-2.60766e-48
-1.52736e-44
-6.10912e-47
-3.64418e-43
-1.568e-45
-6.47626e-42
-3.24011e-44
-1.44906e-40
-7.87783e-43
-2.09019e-39
-1.45721e-41
-4.42123e-38
-3.75242e-40
-4.50339e-37
-8.21217e-39
-8.70695e-36
-2.74562e-37
-7.20104e-36
-5.3395e-38
2.0124e-36
5.64593e-38
5.03575e-37
2.56715e-39
1.4479e-38
2.79964e-40
3.30637e-40
1.24239e-41
9.44419e-42
9.0251e-43
2.78754e-43
3.88695e-44
1.34975e-44
2.24099e-45
5.29828e-46
9.17294e-47
2.59051e-47
4.47235e-48
9.99898e-49
1.7223e-49
4.32361e-50
7.35736e-51
1.57068e-51
2.65586e-52
6.07681e-53
1.01661e-53
2.06966e-54
3.43765e-55
7.27493e-56
1.19709e-56
2.32324e-57
3.79456e-58
7.50214e-59
1.21501e-59
2.24876e-60
3.61496e-61
6.72493e-62
1.07264e-62
1.89464e-63
2.99924e-64
5.27847e-65
5.45509e-66
1.40347e-66
-1.09252e-64
1.89609e-67
-4.13929e-63
6.14136e-66
-1.49323e-61
2.36306e-64
-5.31241e-60
8.93063e-63
-1.78715e-58
3.21761e-61
-5.97189e-57
1.14424e-59
-1.86332e-55
3.8432e-58
-5.83738e-54
1.28393e-56
-1.67709e-52
3.99766e-55
-4.91654e-51
1.25251e-53
-1.28795e-49
3.58821e-52
-3.52742e-48
1.05261e-50
-8.31109e-47
2.74624e-49
-2.1244e-45
7.53208e-48
-4.41347e-44
1.76222e-46
-1.05358e-42
4.49885e-45
-1.87206e-41
9.05045e-44
-4.19155e-40
1.99809e-42
-6.04359e-39
1.98621e-41
-1.27966e-37
-4.80523e-40
-1.3025e-36
-7.06414e-38
-2.52397e-35
-3.90666e-36
-1.61241e-34
1.29534e-37
2.28786e-36
-1.37142e-37
1.38058e-36
-6.39487e-39
3.5826e-38
-7.01249e-40
7.26226e-40
-3.16587e-41
1.32516e-41
-2.31431e-42
2.54171e-43
-1.01106e-43
9.63401e-45
-5.86925e-45
4.13568e-46
-2.4328e-46
2.46771e-47
-1.19455e-47
1.115e-48
-4.65263e-49
5.66042e-50
-2.00174e-50
2.32903e-51
-7.30117e-52
1.01884e-52
-2.8146e-53
3.84063e-54
-9.60893e-55
1.49102e-55
-3.36952e-56
5.18847e-57
-1.07759e-57
1.82168e-58
-3.47403e-59
5.88367e-60
-1.04217e-60
1.8919e-61
-3.11293e-62
5.69512e-63
-8.773e-64
1.69201e-64
-2.24803e-65
4.76405e-66
7.41073e-65
1.71438e-67
2.8269e-63
1.60061e-66
1.01988e-61
6.14399e-65
3.62875e-60
2.32062e-63
1.22084e-58
8.35767e-62
4.07992e-57
2.9702e-60
1.27308e-55
9.97222e-59
3.98868e-54
3.32903e-57
1.14601e-52
1.03613e-55
3.35996e-51
3.24347e-54
8.80218e-50
9.28846e-53
2.41093e-48
2.72195e-51
5.68053e-47
7.09885e-50
1.45212e-45
1.94433e-48
3.01669e-44
4.54547e-47
7.20198e-43
1.15646e-45
1.27954e-41
2.30456e-44
2.86513e-40
4.89724e-43
4.13005e-39
3.21378e-42
8.74602e-38
-2.55579e-40
8.89803e-37
-2.59668e-38
1.72506e-35
-1.38517e-36
-5.5738e-35
1.77602e-37
1.39299e-34
-1.88657e-37
2.58609e-36
-8.7346e-39
6.86606e-38
-9.73435e-40
1.49499e-39
-4.41697e-41
4.13745e-41
-3.28185e-42
1.39363e-42
-1.44785e-43
8.5292e-44
-8.53636e-45
4.04145e-45
-3.58083e-46
2.35734e-46
-1.78482e-47
1.04795e-47
-7.04287e-49
5.18748e-49
-3.07478e-50
2.11661e-50
-1.13684e-51
9.16298e-52
-4.44596e-53
3.4496e-53
-1.539e-54
1.33652e-54
-5.47369e-56
4.6652e-56
-1.77507e-57
1.64291e-57
-5.80329e-59
5.33832e-59
-1.76533e-60
1.72737e-60
-5.34654e-62
5.24229e-62
-1.52786e-63
1.57087e-63
-4.11211e-65
4.46512e-65
7.56942e-65
1.14838e-66
2.90502e-63
-3.89439e-66
1.04779e-61
-1.51116e-64
3.72629e-60
-5.70845e-63