/*--------------------------------*- C++ -*----------------------------------*\
| =========                 |                                                 |
| \\      /  F ield         | OpenFOAM: The Open Source CFD Toolbox           |
|  \\    /   O peration     | Version:  2.4.0                                 |
|   \\  /    A nd           | Web:      www.OpenFOAM.org                      |
|    \\/     M anipulation  |                                                 |
\*---------------------------------------------------------------------------*/
FoamFile
{
    version     2.0;
    format      ascii;
    class       surfaceScalarField;
    location    "0.85";
    object      phi;
}
// * * * * * * * * * * * * * * * * * * * * * * * * * * * * * * * * * * * * * //

dimensions      [0 3 -1 0 0 0 0];

internalField   nonuniform List<scalar> 
15214
(
4.36918e-39
1.15422e-40
2.22939e-38
6.08139e-40
3.23375e-38
3.70728e-39
5.88944e-37
2.67907e-39
9.858e-41
-7.12322e-39
-5.8825e-37
-7.10751e-39
-2.73275e-38
2.80918e-39
4.50403e-39
4.43104e-39
5.09275e-38
4.94008e-39
6.25772e-37
6.63265e-39
6.16243e-37
-3.6911e-39
-5.29207e-37
-9.80225e-39
2.73975e-38
2.67902e-39
5.94028e-37
6.38584e-39
3.30293e-38
-2.81142e-39
2.24022e-38
-3.72556e-39
4.41656e-39
-6.0981e-40
5.94175e-40
-1.1448e-40
8.76473e-41
-1.59902e-41
1.09606e-41
-2.24281e-42
1.37362e-42
-2.74991e-43
1.56526e-43
-3.27336e-44
1.75887e-44
-3.58325e-45
3.64056e-45
-3.40865e-46
1.77522e-44
3.44449e-46
1.58152e-43
3.61731e-45
1.38918e-42
3.30741e-44
1.10994e-41
2.78192e-43
8.88607e-41
2.27188e-42
6.03727e-40
1.62317e-41
4.49293e-39
1.16441e-40
2.2906e-38
6.23492e-40
3.68297e-38
3.8235e-39
6.11838e-37
3.30224e-39
3.68297e-38
-3.30224e-39
2.2906e-38
-3.8235e-39
4.49293e-39
-6.23492e-40
6.03727e-40
-1.16441e-40
8.88604e-41
-1.62324e-41
1.10974e-41
-2.27706e-42
1.37835e-42
-3.14533e-43
1.14793e-43
-2.50115e-43
-1.33819e-43
-1.20205e-42
-1.06717e-43
-4.66048e-42
1.57855e-43
-1.67828e-41
-3.06827e-42
1.61416e-39
-1.36507e-40
7.81388e-39
-9.90268e-40
4.09758e-38
-5.64119e-39
6.39866e-38
-3.93906e-39
4.42734e-41
1.07642e-38
-6.36885e-38
1.07421e-38
-3.90808e-38
-4.13171e-39
1.68117e-39
-6.80636e-39
4.7455e-38
-7.65009e-39
1.06637e-37
-9.94596e-39
7.36938e-38
5.61873e-39
-1.32585e-38
1.47032e-38
9.75128e-39
-3.939e-39
6.59144e-38
-9.57977e-39
4.1273e-38
4.13456e-39
7.8632e-39
5.66661e-39
1.64217e-39
9.94963e-40
2.53296e-40
1.70708e-40
3.90819e-41
2.23677e-41
5.20662e-42
2.86182e-42
6.73478e-43
3.26921e-43
7.95365e-44
3.63673e-44
9.14452e-45
3.77296e-45
1.93626e-45
3.43682e-46
9.23276e-45
-3.47026e-46
8.03995e-44
-3.80595e-45
6.81539e-43
-3.67106e-44
5.27691e-42
-3.3031e-43
3.96739e-41
-2.89434e-42
2.57811e-40
-2.26575e-41
1.67589e-39
-1.73235e-40
8.07606e-39
-1.0144e-39
4.26514e-38
-5.81429e-39
7.20569e-38
-4.95307e-39
4.26514e-38
4.95307e-39
8.07606e-39
5.81429e-39
1.67589e-39
1.0144e-39
2.5781e-40
1.73234e-40
3.96709e-41
2.2653e-41
5.25891e-42
2.86037e-42
5.82685e-43
8.92709e-44
-3.18555e-43
-1.42386e-42
-1.39952e-42
-8.19329e-42
-1.01767e-42
-3.25087e-41
1.41147e-42
-1.18906e-40
-2.17354e-41
4.25985e-40
-5.63011e-41
1.65548e-39
-3.79086e-40
6.71805e-39
-1.78002e-39
9.87623e-39
-1.13502e-39
1.47122e-41
3.37405e-39
-9.78553e-39
3.36426e-39
-6.21051e-39
-1.21503e-39
4.44681e-40
-2.23083e-39
8.03489e-39
-2.55006e-39
1.70367e-38
-3.06626e-39
1.20378e-38
1.76983e-39
-9.81658e-40
4.50901e-39
2.17624e-39
-1.13495e-39
1.03943e-38
-2.91458e-39
6.80828e-39
1.21636e-39
1.67128e-39
1.79122e-39
4.31835e-40
3.80933e-40
7.5774e-41
7.03063e-41
1.28813e-41
9.96082e-42
1.83548e-42
1.33502e-42
2.49874e-43
1.59684e-43
3.06769e-44
1.83503e-44
3.63818e-45
1.96304e-45
7.89168e-46
1.82671e-46
3.67478e-45
-1.84524e-46
3.10278e-44
-1.98098e-45
2.5307e-43
-1.85328e-44
1.86247e-42
-1.61443e-43
1.30997e-41
-1.35137e-42
7.73524e-41
-1.01017e-41
4.42819e-40
-7.14777e-41
1.73367e-39
-3.89522e-40
7.16066e-39
-1.85125e-39
1.16078e-38
-1.52431e-39
7.16066e-39
1.52431e-39
1.73367e-39
1.85125e-39
4.42819e-40
3.89521e-40
7.73494e-41
7.14744e-41
1.30789e-41
1.00745e-41
1.73562e-42
1.14253e-42
-4.52707e-43
-1.34036e-42
-2.85734e-42
-9.22707e-42
-1.03486e-41
-5.28795e-41
-7.57408e-42
-2.14498e-40
1.0165e-41
-7.99822e-40
-1.46013e-40
8.19924e-41
-2.16631e-41
2.58551e-40
-1.13435e-40
8.44125e-40
-4.87377e-40
1.17611e-39
-2.98446e-40
3.46555e-42
9.21111e-40
-1.15623e-39
9.17916e-40
-7.4488e-40
-3.23523e-40
8.58716e-41
-6.2036e-40
1.04007e-39
-7.13282e-40
2.10548e-39
-8.32099e-40
1.53331e-39
4.827e-40
2.87236e-41
1.21929e-39
3.60668e-40
-2.981e-40
1.27772e-39
-7.84059e-40
8.63824e-40
3.23985e-40
2.62112e-40
4.89851e-40
8.28721e-41
1.12246e-40
1.63473e-41
2.21686e-41
3.0087e-42
3.31812e-42
4.53856e-43
4.65785e-43
6.4335e-44
5.78437e-44
8.15611e-45
6.85274e-45
9.91491e-46
7.51548e-46
2.19418e-46
7.12386e-47
1.00181e-45
-7.19854e-47
8.25344e-45
-7.58664e-46
6.52032e-44
-6.9239e-45
4.61008e-43
-5.85153e-44
3.06466e-42
-4.71869e-43
1.67348e-41
-3.36895e-42
8.54105e-41
-2.2575e-41
2.75322e-40
-1.15085e-40
9.29436e-40
-5.08585e-40
1.4509e-39
-4.13127e-40
9.29436e-40
4.13126e-40
2.75321e-40
5.08585e-40
8.5408e-41
1.15083e-40
1.67156e-41
2.2557e-41
2.92774e-42
3.21583e-42
-3.83312e-43
-7.15508e-43
-4.70353e-42
-8.61844e-42
-1.98453e-41
-5.44665e-41
-7.23945e-41
-3.18898e-40
-5.36839e-41
-1.3311e-39
6.94189e-41
-5.07328e-39
-9.26298e-40
1.38822e-41
-3.17999e-41
3.49109e-41
-3.7546e-41
8.13409e-41
-1.09857e-40
1.03261e-40
-6.18228e-41
7.52741e-43
1.90773e-40
-9.92492e-41
1.90385e-40
-6.361e-41
-6.56147e-41
1.49764e-41
-1.30979e-40
1.05264e-40
-1.51379e-40
1.99102e-40
-1.71807e-40
1.55049e-40
1.00114e-40
3.06161e-41
2.50891e-40
5.26293e-41
-5.96261e-41
1.21135e-40
-1.60537e-40
8.49683e-41
6.57194e-41
3.52717e-41
1.01869e-40
1.43543e-41
2.48899e-41
3.14961e-42
5.18051e-42
6.24123e-43
8.12197e-43
9.88006e-44
1.18271e-43
1.45166e-44
1.51504e-44
1.89121e-45
1.83891e-45
2.34947e-46
2.05845e-46
5.28889e-47
1.98035e-47
2.37466e-46
-2.00168e-47
1.91463e-45
-2.07852e-46
1.47218e-44
-1.8587e-45
1.00454e-43
-1.53339e-44
6.36696e-43
-1.199e-43
3.23343e-42
-8.25464e-43
1.48758e-41
-5.28321e-42
3.7768e-41
-2.55802e-41
9.59741e-41
-1.06207e-40
1.40795e-40
-8.51911e-41
9.59739e-41
8.5191e-41
3.77662e-41
1.06206e-40
1.48606e-41
2.557e-41
3.11632e-42
5.19149e-42
-2.1039e-43
3.49248e-44
-5.20398e-42
-6.10764e-42
-3.05044e-41
-4.64243e-41
-1.2979e-40
-2.98973e-40
-4.83504e-40
-1.80484e-39
-3.64141e-40
-7.82281e-39
4.51101e-40
-3.06975e-38
-5.59283e-39
-3.64981e-43
-1.73053e-40
6.90312e-42
-8.35085e-41
7.09062e-42
-7.43322e-41
6.1435e-42
-2.43888e-41
3.37201e-43
3.3436e-41
-4.59135e-42
3.57069e-41
-2.69678e-42
-1.23736e-41
2.38517e-42
-2.51811e-41
8.1428e-42
-2.91781e-41
1.31929e-41
-3.25642e-41
1.23037e-41
1.89959e-41
7.32656e-42
4.74201e-41
7.12095e-42
-1.1054e-41
8.21791e-42
-3.02211e-41
6.19156e-42
1.23243e-41
4.33499e-42
1.93744e-41
2.2702e-42
4.93131e-42
5.43867e-43
1.07345e-42
1.14202e-43
1.74659e-43
1.87963e-44
2.62512e-44
2.84267e-45
3.45052e-45
3.78855e-46
4.2763e-46
4.79278e-47
4.86966e-47
1.09478e-47
4.74457e-48
4.84546e-47
-4.79685e-48
3.83694e-46
-4.91833e-47
2.88443e-45
-4.32369e-46
1.91265e-44
-3.49387e-45
1.16655e-43
-2.6629e-44
5.59726e-43
-1.77671e-43
2.36485e-42
-1.09615e-42
4.75894e-42
-5.07886e-42
7.88006e-42
-2.02663e-41
1.00525e-41
-1.61295e-41
7.87898e-42
1.6129e-41
4.74908e-42
2.02617e-41
2.28054e-42
5.03377e-42
-9.99723e-44
6.82974e-43
-4.72982e-42
-3.43819e-42
-3.08965e-41
-2.90039e-41
-1.81836e-40
-2.2196e-40
-7.93748e-40
-1.47662e-39
-3.03055e-39
-9.27509e-39
-2.32278e-39
-4.22882e-38
2.73434e-39
-1.71383e-37
-3.12881e-38
-1.24752e-41
-9.99146e-40
2.06131e-41
-4.53944e-40
1.09149e-41
-3.26428e-40
5.19245e-42
-7.82619e-41
1.34518e-42
-1.01597e-41
6.92406e-43
3.51314e-42
3.90524e-43
-2.47651e-42
3.73612e-43
-4.39057e-42
3.65847e-43
-5.04664e-42
1.58177e-43
-5.54451e-42
6.38907e-43
3.23629e-42
1.34784e-42
8.05208e-42
9.58108e-43
-1.84423e-42
1.53902e-43
-5.11295e-42
2.03502e-43
2.07838e-42
5.27563e-43
3.30812e-42
3.46848e-43
8.71789e-43
8.8674e-44
1.96818e-43
1.9461e-44
3.30354e-44
3.30084e-45
5.09624e-45
5.10952e-46
6.84562e-46
6.93669e-47
8.63356e-47
8.9091e-48
9.97702e-48
2.06002e-48
9.82656e-49
9.00913e-48
-9.937e-49
7.02762e-47
-1.00789e-47
5.18699e-46
-8.73171e-47
3.36117e-45
-6.93431e-46
1.99005e-44
-5.17237e-45
9.14461e-44
-3.36314e-44
3.62868e-43
-2.0121e-43
5.95744e-43
-8.99556e-43
4.54977e-43
-3.47054e-42
2.94841e-43
-2.74327e-42
4.49564e-43
2.74136e-42
5.4594e-43
3.45259e-42
-6.84483e-44
7.22506e-43
-3.33567e-42
-1.44485e-42
-2.56439e-41
-1.46508e-41
-1.6748e-40
-1.2081e-40
-1.01286e-39
-9.55719e-40
-4.56694e-39
-6.65296e-39
-1.80187e-38
-4.42502e-38
-1.4089e-38
-2.16359e-37
1.56678e-38
-9.22013e-37
-1.66948e-37
-2.69407e-41
-5.50118e-39
1.56317e-40
-2.3965e-39
7.32085e-41
-1.71833e-39
3.43038e-41
-3.95789e-40
8.01964e-42
-8.10074e-41
1.8289e-42
-1.19792e-41
3.90148e-43
-2.24848e-42
9.58374e-44
-9.5156e-43
-1.54456e-44
-8.48249e-43
-1.3097e-43
-8.93174e-43
-9.88257e-45
5.18996e-43
2.14493e-43
1.28941e-42
1.2883e-43
-2.91273e-43
-6.84884e-44
-8.16275e-43
-3.25148e-44
3.31256e-43
6.52785e-44
5.31902e-43
5.0771e-44
1.43882e-43
1.3592e-44
3.34659e-44
3.08102e-45
5.75913e-45
5.35047e-46
9.07707e-46
8.43785e-47
1.24124e-46
1.16322e-47
1.58846e-47
1.51304e-48
1.85835e-48
3.5352e-49
1.84714e-49
1.53034e-48
-1.86825e-49
1.17881e-47
-1.87767e-48
8.56918e-47
-1.60691e-47
5.45143e-46
-1.25774e-46
3.1534e-45
-9.2169e-46
1.40395e-44
-5.86698e-45
5.32916e-44
-3.4246e-44
7.55974e-44
-1.48705e-43
3.34741e-45
-5.59402e-43
-6.264e-44
-4.40327e-43
-2.04022e-44
4.34622e-43
-1.45488e-43
5.05116e-43
-1.88975e-42
-3.94112e-43
-1.57006e-41
-5.09692e-42
-1.20309e-40
-4.68303e-41
-8.06711e-40
-3.98018e-40
-5.03951e-39
-3.30168e-39
-2.36299e-38
-2.46167e-38
-9.67501e-38
-1.77735e-37
-7.7291e-38
-9.63136e-37
8.0149e-38
-4.31205e-36
-7.8629e-37
3.93942e-40
-2.7464e-38
1.24308e-39
-1.187e-38
4.94864e-40
-8.66369e-39
2.07808e-40
-1.91161e-39
4.60075e-41
-3.81063e-40
9.3148e-42
-5.80457e-41
1.51076e-42
-8.41286e-42
2.297e-43
-1.16726e-42
2.06977e-44
-2.52264e-43
-2.64438e-44
-1.48156e-43
-8.63036e-45
7.66157e-44
3.15784e-44
1.93481e-43
1.73826e-44
-4.32149e-44
-1.63493e-44
-1.2225e-43
-9.22526e-45
4.95349e-44
8.31736e-45
8.01638e-44
7.19714e-45
2.21734e-44
1.98809e-45
5.2825e-45
4.61509e-46
9.2797e-46
8.16288e-47
1.48841e-46
1.30673e-47
2.06581e-47
1.82425e-48
2.67611e-48
2.3981e-49
3.16359e-49
5.65242e-50
3.16897e-50
2.42591e-49
-3.20573e-50
1.84912e-48
-3.19701e-49
1.32748e-47
-2.70779e-48
8.32055e-47
-2.09389e-47
4.72642e-46
-1.51197e-46
2.05553e-45
-9.45936e-46
7.56585e-45
-5.41075e-45
9.73345e-45
-2.29556e-44
-5.09148e-45
-8.45771e-44
-2.5563e-44
-6.7266e-44
-9.74335e-44
5.35918e-44
-8.62344e-43
-4.73486e-44
-7.79802e-42
-1.31899e-42
-6.45009e-41
-1.29578e-41
-5.07656e-40
-1.22392e-40
-3.51706e-39
-1.09325e-39
-2.29052e-38
-9.81833e-39
-1.12618e-37
-8.16714e-38
-4.88661e-37
-6.7161e-37
-3.99188e-37
-4.20072e-36
3.86545e-37
-2.09458e-35
-3.65175e-36
7.14012e-39
-1.31682e-37
9.82395e-39
-4.96693e-38
3.21098e-39
-3.51072e-38
1.14595e-39
-7.39239e-39
2.36868e-40
-1.40771e-39
4.55869e-41
-2.07208e-40
7.08339e-42
-2.89025e-41
1.03122e-42
-3.5958e-42
1.31718e-43
-4.44082e-43
1.14802e-44
-6.80259e-44
1.26573e-46
7.5786e-45
4.54383e-45
3.04303e-44
2.32277e-45
-6.87766e-45
-2.6356e-45
-1.94836e-44
-1.54945e-45
7.88426e-45
1.06533e-45
1.28371e-44
9.78771e-46
3.61206e-45
2.7653e-46
8.76421e-46
6.53627e-47
1.56413e-46
1.1735e-47
2.5429e-47
1.90194e-48
3.5705e-48
2.68375e-49
4.66975e-49
3.56003e-50
5.56602e-50
8.45497e-51
5.60979e-51
3.60139e-50
-5.67565e-51
2.72026e-49
-5.62557e-50
1.93183e-48
-4.72587e-49
1.19553e-47
-3.61995e-48
6.68375e-47
-2.58407e-47
2.84467e-46
-1.59528e-46
1.01041e-45
-8.9847e-46
1.03007e-45
-3.74585e-45
-3.52092e-45
-1.3595e-44
-3.03488e-44
-1.10916e-44
-2.7901e-43
4.67092e-45
-2.64252e-42
-5.05427e-44
-2.41369e-41
-6.84365e-43
-2.04358e-40
-7.27901e-42
-1.65761e-39
-8.10931e-41
-1.1919e-38
-9.45727e-40
-8.11817e-38
-1.19244e-38
-4.21762e-37
-1.4412e-37
-1.94325e-36
-1.57625e-36
-1.61705e-36
-1.2994e-35
1.39569e-36
-6.91665e-35
-1.24933e-35
-3.46973e-39
-9.18335e-41
-1.8403e-38
-5.08318e-40
-2.72741e-38
-3.41136e-39
-5.39448e-37
-2.54594e-39
4.19394e-45
6.56913e-39
5.39448e-37
6.56913e-39
2.72745e-38
-2.54593e-39
1.84084e-38
-3.41124e-39
3.49043e-39
-5.07768e-40
4.34421e-40
-9.07025e-41
6.08472e-41
-1.17379e-41
6.26333e-42
-1.57634e-42
-6.26434e-42
-3.56187e-43
-6.08568e-41
-1.57654e-42
-4.34512e-40
-1.174e-41
-3.49129e-39
-9.07227e-41
-1.84156e-38
-5.07948e-40
-2.73363e-38
-3.41281e-39
-5.3989e-37
-2.55784e-39
-3.55222e-39
6.47685e-39
5.20598e-37
6.04944e-39
-3.55222e-39
-6.04944e-39
-5.3989e-37
-6.47685e-39
-2.73363e-38
2.55784e-39
-1.84156e-38
3.41281e-39
-3.49138e-39
5.07946e-40
-4.35373e-40
9.07023e-41
-6.81336e-41
1.1558e-41
-6.88048e-41
-1.79171e-44
-4.41618e-40
-1.17177e-41
-3.54512e-39
-9.20787e-41
-1.87882e-38
-5.18105e-40
-3.03851e-38
-3.4916e-39
-5.54746e-37
-2.97333e-39
-1.19768e-38
3.58529e-39
1.19759e-38
7.00701e-39
5.54739e-37
3.58513e-39
3.03227e-38
-2.97495e-39
1.84605e-38
-3.50157e-39
-5.52195e-40
-1.28051e-39
1.08969e-40
-6.48471e-39
8.28409e-40
-3.71539e-38
5.19612e-39
-5.92386e-38
3.76173e-39
2.63071e-45
-9.93991e-39
5.92386e-38
-9.93991e-39
3.71542e-38
3.76172e-39
6.48754e-39
5.19607e-39
1.29436e-39
8.29478e-40
1.8531e-40
1.34158e-40
2.70587e-41
1.62844e-41
2.96066e-42
1.98713e-42
-2.9612e-42
4.19602e-43
-2.70636e-41
1.98733e-42
-1.85356e-40
1.62866e-41
-1.29478e-39
1.3418e-40
-6.49096e-39
8.2969e-40
-3.71817e-38
5.19806e-39
-5.94273e-38
3.77821e-39
-1.32189e-39
-9.80377e-39
5.25623e-38
-9.09394e-39
-1.32189e-39
9.09394e-39
-5.94273e-38
9.80377e-39
-3.71817e-38
-3.77821e-39
-6.49096e-39
-5.19806e-39
-1.29483e-39
-8.29688e-40
-1.85778e-40
-1.34158e-40
-3.05231e-41
-1.60727e-41
-3.08484e-41
1.98504e-44
-1.88729e-40
1.62622e-41
-1.31851e-39
1.35911e-40
-6.64876e-39
8.43983e-40
-3.82873e-38
5.31572e-39
-6.4593e-38
4.47155e-39
-3.17998e-38
-5.45366e-39
3.17994e-38
-1.06644e-38
6.45897e-38
-5.45351e-39
3.82579e-38
4.47241e-39
6.48695e-39
5.30857e-39
6.25698e-40
-3.40819e-40
4.45601e-41
-1.38201e-39
3.18347e-40
-6.12366e-39
1.64927e-39
-9.23921e-39
1.10288e-39
5.1087e-46
-3.13452e-39
9.23921e-39
-3.13452e-39
6.1237e-39
1.10288e-39
1.38256e-39
1.64925e-39
3.42933e-40
3.1879e-40
5.57718e-41
5.53083e-41
8.96574e-42
7.26441e-42
1.04072e-42
9.28143e-43
-1.04094e-42
2.05102e-43
-8.96771e-42
9.28251e-43
-5.57896e-41
7.26554e-42
-3.43088e-40
5.53196e-41
-1.38377e-39
3.18894e-40
-6.13284e-39
1.65018e-39
-9.2962e-39
1.11024e-39
-3.52072e-40
-3.07828e-39
7.79967e-39
-2.80836e-39
-3.52072e-40
2.80836e-39
-9.2962e-39
3.07828e-39
-6.13284e-39
-1.11024e-39
-1.38377e-39
-1.65018e-39
-3.43106e-40
-3.18892e-40
-5.59467e-41
-5.53082e-41
-1.01954e-41
-7.16086e-42
-1.03153e-41
9.98058e-45
-5.69838e-41
7.2532e-42
-3.50877e-40
5.61217e-41
-1.43041e-39
3.25227e-40
-6.41878e-39
1.69812e-39
-1.03267e-38
1.3728e-39
-5.03624e-39
-1.75519e-39
5.03613e-39
-3.41096e-39
1.0326e-38
-1.75512e-39
6.41338e-39
1.37318e-39
1.40018e-39
1.69536e-39
2.39941e-40
-6.62072e-41
1.39822e-41
-2.17207e-40
9.3921e-41
-7.74695e-40
4.51796e-40
-1.11314e-39
2.92114e-40
4.39961e-47
-8.583e-40
1.11314e-39
-8.583e-40
7.74696e-40
2.92113e-40
2.17264e-40
4.51795e-40
6.62988e-41
9.41081e-41
1.21003e-41
1.74936e-41
2.10289e-42
2.42751e-42
2.56682e-43
3.25103e-43
-2.56744e-43
7.44994e-44
-2.10343e-42
3.25145e-43
-1.21051e-41
2.42794e-42
-6.63389e-41
1.74978e-41
-2.17565e-40
9.41458e-41
-7.76844e-40
4.5212e-40
-1.12554e-39
2.94578e-40
-6.84466e-41
-8.40482e-40
8.83476e-40
-7.61728e-40
-6.84466e-41
7.61728e-40
-1.12554e-39
8.40482e-40
-7.76844e-40
-2.94578e-40
-2.17566e-40
-4.5212e-40
-6.63437e-41
-9.41454e-41
-1.21457e-41
-1.74936e-41
-2.40863e-42
-2.38988e-42
-2.43932e-42
3.72521e-45
-1.24014e-41
2.42331e-42
-6.81502e-41
1.77769e-41
-2.27519e-40
9.62473e-41
-8.30741e-40
4.67149e-40
-1.27436e-39
3.70868e-40
-6.13478e-40
-4.85259e-40
6.13464e-40
-9.39226e-40
1.2743e-39
-4.85244e-40
8.30238e-40
3.70925e-40
2.24142e-40
4.65961e-40
7.00658e-41
-1.16592e-41
3.24063e-42
-2.92899e-41
2.08446e-41
-7.55759e-41
9.40908e-41
-1.00142e-40
5.8906e-41
-1.34432e-47
-1.78687e-40
1.00142e-40
-1.78687e-40
7.55739e-41
5.89062e-41
2.92841e-41
9.40928e-41
1.15806e-41
2.09025e-41
2.34414e-42
4.09761e-42
4.3809e-43
5.9567e-43
5.57542e-44
8.27884e-44
-5.57691e-44
1.95505e-44
-4.38218e-43
8.28003e-44
-2.34524e-42
5.95789e-43
-1.15897e-41
4.09874e-42
-2.93499e-41
2.09124e-41
-7.60222e-41
9.41756e-41
-1.02552e-40
5.95116e-41
-1.20289e-41
-1.74507e-40
6.84477e-41
-1.57179e-40
-1.20289e-41
1.57179e-40
-1.02552e-40
1.74507e-40
-7.60222e-41
-5.95116e-41
-2.935e-41
-9.41756e-41
-1.15908e-41
-2.09123e-41
-2.35444e-42
-4.0976e-42
-5.05001e-43
-5.8579e-43
-5.11891e-43
9.98702e-46
-2.40996e-42
5.94541e-43
-1.19642e-41
4.16939e-42
-3.1246e-41
2.1425e-41
-8.51927e-41
9.76677e-41
-1.19807e-40
7.62337e-41
-5.59087e-41
-1.01922e-40
5.59083e-41
-1.96546e-40
1.19814e-40
-1.0192e-40
8.52477e-41
7.62327e-41
3.12883e-41
9.73149e-41
1.5342e-41
-1.87223e-42
6.54609e-43
-3.60702e-42
4.10499e-42
-5.36626e-42
1.79057e-41
-5.67583e-42
1.09818e-41
2.98647e-49
-3.40399e-41
5.67581e-42
-3.40398e-41
5.36578e-42
1.09826e-41
3.60358e-42
1.79111e-41
1.84448e-42
4.14599e-42
4.06505e-43
8.51024e-43
8.04164e-44
1.28393e-43
1.05849e-44
1.84282e-44
-1.0588e-44
4.46126e-45
-8.04425e-44
1.8431e-44
-4.06727e-43
1.28421e-43
-1.84626e-42
8.51287e-43
-3.61615e-42
4.14825e-42
-5.4482e-42
1.79296e-41
-6.09491e-42
1.11132e-41
-1.9269e-42
-3.31704e-41
1.65313e-42
-2.97632e-41
-1.9269e-42
2.97632e-41
-6.09491e-42
3.31704e-41
-5.4482e-42
-1.11132e-41
-3.61617e-42
-1.79296e-41
-1.84649e-42
-4.14822e-42
-4.08534e-43
-8.51021e-43
-9.32002e-44
-1.26138e-43
-9.45433e-44
2.32134e-46
-4.1907e-43
1.2813e-43
-1.91455e-42
8.66933e-43
-3.94028e-42
4.25816e-42
-6.87359e-42
1.865e-41
-7.77159e-42
1.43898e-41
-3.26998e-42
-1.95358e-41
3.27033e-42
-3.75611e-41
7.77579e-42
-1.95358e-41
6.90558e-42
1.4386e-41
4.04419e-42
1.85597e-41
2.9985e-42
-2.75721e-43
1.23285e-43
-4.36154e-43
5.27214e-43
-1.41446e-43
3.02637e-42
1.59776e-43
1.83699e-42
5.29136e-47
-5.82115e-42
-1.59432e-43
-5.82067e-42
1.43355e-43
1.84179e-42
4.38851e-43
3.06046e-42
2.83287e-43
7.33675e-43
6.64781e-44
1.56327e-43
1.37363e-44
2.43304e-44
1.85537e-45
3.58579e-45
-1.85595e-45
8.86447e-46
-1.37411e-44
3.58638e-45
-6.65188e-44
2.43362e-44
-2.83609e-43
1.5638e-43
-4.41063e-43
7.34124e-43
-1.57452e-43
3.06405e-42
9.07427e-44
1.86657e-42
-2.97386e-43
-5.66071e-42
-6.66984e-43
-5.06217e-42
-2.97386e-43
5.06217e-42
9.07426e-44
5.66071e-42
-1.57453e-43
-1.86657e-42
-4.41068e-43
-3.06404e-42
-2.8365e-43
-7.34118e-43
-6.68443e-44
-1.56326e-43
-1.5989e-44
-2.38821e-44
-1.62295e-44
4.68395e-47
-6.86907e-44
2.42772e-44
-2.95213e-43
1.59411e-43
-4.93453e-43
7.54856e-43
-3.72045e-43
3.1956e-42
-5.07219e-44
2.44033e-42
6.68166e-44
-3.3587e-42
-6.66893e-44
-6.44074e-42
5.18802e-44
-3.35877e-42
3.80404e-43
2.43905e-42
5.23361e-43
3.17623e-42
5.2345e-43
2.14869e-43
-1.35347e-42
3.95285e-46
-1.21336e-42
5.40185e-44
2.87958e-43
1.11288e-43
2.66595e-43
3.82368e-46
-9.39799e-43
-1.08513e-43
-9.37428e-43
-3.60051e-44
2.92054e-43
5.4305e-44
4.92326e-43
4.16061e-44
1.21179e-43
1.02102e-44
2.66226e-44
2.17824e-45
4.24823e-45
3.00237e-46
6.39936e-46
-3.00337e-46
1.6094e-46
-2.17906e-45
6.40047e-46
-1.0217e-44
4.24931e-45
-4.16592e-44
2.66324e-44
-5.4664e-44
1.2126e-43
3.37716e-44
4.92968e-43
9.79862e-44
2.96406e-43
-4.38443e-44
-9.09913e-43
-1.73432e-43
-8.11668e-43
-4.38443e-44
8.11668e-43
9.79862e-44
9.09913e-43
3.37715e-44
-2.96406e-43
-5.46648e-44
-4.92968e-43
-4.16661e-44
-1.21259e-43
-1.02709e-44
-2.66225e-44
-2.54438e-45
-4.16682e-45
-2.58396e-45
8.61402e-48
-1.05696e-44
4.23843e-45
-4.34916e-44
2.71713e-44
-6.26377e-44
1.24866e-43
2.73579e-45
5.15262e-43
8.75261e-44
3.90322e-43
5.70431e-44
-5.43092e-43
-5.70136e-44
-1.03918e-42
-8.72871e-44
-5.43117e-43
-1.08161e-45
3.90007e-43
6.86903e-44
5.11533e-43
8.5397e-44
4.23988e-42
1.08593e-41
6.06759e-43
-7.64834e-42
1.60621e-43
-1.05168e-42
4.16371e-44
-7.72699e-44
2.51465e-45
-1.52941e-43
-2.138e-44
-1.42435e-43
-9.32606e-45
4.33904e-44
6.91852e-45
7.42229e-44
5.90972e-45
1.86864e-44
1.49537e-45
4.20748e-45
3.26658e-46
6.85373e-46
4.57377e-47
1.05099e-46
-4.57536e-47
2.68132e-47
-3.26787e-46
1.05118e-46
-1.49642e-45
6.85559e-46
-5.91774e-45
4.20917e-45
-6.97094e-45
1.87005e-44
9.01705e-45
7.43352e-44
2.00971e-44
4.41769e-44
-6.24547e-45
-1.37094e-43
-3.0114e-44
-1.22021e-43
-6.24547e-45
1.22021e-43
2.00971e-44
1.37094e-43
9.01704e-45
-4.41769e-44
-6.97107e-45
-7.43352e-44
-5.91883e-45
-1.87004e-44
-1.50478e-45
-4.2075e-45
-3.82638e-46
-6.71809e-46
-3.8875e-46
1.45053e-48
-1.55028e-45
6.83723e-46
-6.19161e-45
4.2974e-45
-8.13059e-45
1.92804e-44
4.65793e-45
7.78439e-44
1.94267e-44
5.85512e-44
1.15745e-44
-8.22496e-44
-1.15688e-44
-1.57086e-43
-1.93841e-44
-8.22555e-44
-4.37304e-45
5.8488e-44
9.17998e-45
7.71959e-44
1.30304e-44
6.02293e-41
-1.06254e-40
7.9244e-42
-1.26016e-41
1.12649e-42
-1.31474e-42
1.27472e-43
-1.19981e-43
1.33425e-44
-3.44282e-44
-2.03926e-45
-2.37007e-44
-1.42537e-45
6.80597e-45
8.95938e-46
1.18832e-44
8.0545e-46
3.04511e-45
2.08249e-46
6.98685e-46
4.63074e-47
1.1563e-46
6.56708e-48
1.79774e-47
-6.56902e-48
4.63802e-48
-4.6321e-47
1.7981e-47
-2.08333e-46
1.15666e-46
-8.05742e-46
6.99019e-46
-8.93113e-46
3.04804e-45
1.49933e-45
1.19084e-44
3.12356e-45
7.01249e-45
-8.52201e-46
-2.19486e-44
-4.44097e-45
-1.95017e-44
-8.52201e-46
1.95017e-44
3.12356e-45
2.19486e-44
1.49932e-45
-7.01249e-45
-8.93133e-46
-1.19084e-44
-8.05901e-46
-3.04801e-45
-2.09551e-46
-6.98727e-46
-5.43637e-47
-1.13286e-46
-5.52511e-47
2.5301e-49
-2.16081e-46
1.15345e-46
-8.44451e-46
7.14071e-46
-1.05367e-45
3.14563e-45
9.10882e-46
1.24892e-44
3.09056e-45
9.34147e-45
1.79618e-45
-1.32218e-44
-1.79524e-45
-2.52145e-44
-3.08377e-45
-1.32231e-44
-8.66792e-46
9.32909e-45
1.21571e-45
1.23736e-44
2.10569e-45
1.31106e-37
-7.9727e-37
1.25434e-37
-3.14784e-37
3.46376e-38
-2.28494e-37
1.04949e-38
-4.23163e-38
1.98421e-39
-7.62446e-39
3.5994e-40
-1.06185e-39
5.35562e-41
-1.43268e-40
7.56008e-42
-1.72069e-41
9.5395e-43
-1.99758e-42
1.13826e-43
-2.16948e-43
1.24772e-44
-2.13119e-44
1.9661e-45
3.93774e-46
4.53087e-46
-7.7617e-46
-3.84179e-46
-1.64891e-45
-2.36413e-46
6.58335e-46
1.43644e-46
1.07943e-45
1.36652e-46
3.09114e-46
3.92187e-47
7.68249e-47
9.38999e-48
1.39802e-47
1.70438e-48
2.31565e-48
2.78729e-49
3.30308e-49
3.96392e-50
4.3813e-50
5.29251e-51
5.28611e-51
1.26251e-51
5.37946e-52
5.33568e-51
-5.44018e-52
3.99229e-50
-5.33887e-51
2.79656e-49
-4.42824e-50
1.6911e-48
-3.34057e-49
9.02594e-48
-2.34167e-48
3.32594e-47
-1.41055e-47
5.6635e-47
-7.6791e-47
-8.30094e-46
-2.96286e-46
-1.12528e-44
-8.54365e-46
-1.18186e-43
2.36716e-45
-1.20646e-42
3.64494e-44
-1.17047e-41
3.70426e-43
-1.09708e-40
3.63576e-42
-9.56145e-40
3.21697e-41
-8.06997e-39
2.35744e-40
-6.05835e-38
7.33382e-40
-4.4134e-37
-1.64021e-38
-2.457e-36
-4.69117e-37
-1.31913e-35
-7.24047e-36
-1.10517e-35
-8.10214e-35
1.1203e-35
-4.65083e-35
-8.12054e-35
1.27691e-35
1.89282e-36
-1.09734e-36
1.46007e-36
-9.51232e-37
3.08106e-37
-2.61041e-37
7.10307e-38
-4.02263e-38
1.17416e-38
-6.58641e-39
1.92223e-39
-8.81601e-40
2.68257e-40
-1.16933e-40
3.60814e-41
-1.39201e-41
4.40056e-42
-1.60825e-42
5.1435e-43
-1.72964e-43
5.60882e-44
-1.7833e-44
5.91956e-45
-1.5344e-45
6.06867e-46
-2.15964e-46
2.42556e-47
-1.56943e-46
-1.38188e-47
5.60206e-47
1.13494e-47
9.41494e-47
1.05937e-47
2.72947e-47
3.07697e-48
6.84913e-48
7.47387e-49
1.25772e-48
1.37388e-49
2.0974e-49
2.27336e-50
3.01015e-50
3.26636e-51
4.01081e-51
4.40236e-52
4.85829e-52
1.06696e-52
4.95851e-53
4.56017e-52
-4.99059e-53
3.45666e-51
-4.87439e-52
2.50228e-50
-4.00809e-51
1.64818e-49
-2.98155e-50
1.07473e-48
-2.03705e-49
6.91974e-48
-1.16003e-48
5.49095e-47
-5.47166e-48
5.07179e-46
-9.39018e-48
5.37213e-45
1.23819e-46
5.6126e-44
2.4619e-45
5.63591e-43
2.79133e-44
5.36138e-42
2.90459e-43
4.89204e-41
2.87978e-42
4.15887e-40
2.58727e-41
3.3802e-39
1.97611e-40
2.45869e-38
8.03052e-40
1.68992e-37
-9.19317e-39
9.06602e-37
-3.1839e-37
4.33842e-36
-5.15738e-36
4.76746e-36
-6.0183e-35
-9.65857e-37
-2.31167e-33
-6.03982e-35
-2.59558e-36
3.73672e-35
-1.87052e-35
2.43627e-36
-1.20893e-36
1.87367e-36
5.15243e-38
4.06104e-37
2.48378e-38
6.1048e-38
5.76481e-39
9.63268e-39
8.56143e-40
1.28729e-39
1.18151e-40
1.69022e-40
1.42357e-41
2.01085e-41
1.64896e-42
2.3115e-42
1.77102e-43
2.48056e-43
1.83525e-44
2.5648e-44
1.81694e-45
2.51636e-45
1.66444e-46
2.35299e-46
4.18811e-48
2.00272e-47
5.89458e-48
2.73674e-48
7.61218e-48
9.91361e-49
2.20712e-48
2.57649e-49
5.59091e-49
6.09636e-50
1.03717e-49
1.11795e-50
1.74607e-50
1.85376e-51
2.52732e-51
2.6738e-52
3.39233e-52
3.64298e-53
4.13577e-53
1.25988e-53
4.2204e-54
9.10376e-53
-4.59511e-54
1.01755e-51
-4.61891e-53
1.18458e-50
-4.05046e-52
1.40506e-49
-3.40809e-51
1.68766e-48
-2.90255e-50
2.00678e-47
-2.51915e-49
2.3481e-46
-2.4123e-48
2.66238e-45
-2.4685e-47
2.92607e-44
-2.72396e-46
3.08091e-43
-3.01028e-45
3.12747e-42
-3.29252e-44
3.01099e-41
-3.42889e-43
2.79062e-40
-3.37898e-42
2.4111e-39
-2.97018e-41
2.00568e-38
-2.1028e-40
1.49355e-37
-4.27653e-40
1.06839e-36
2.0739e-38
5.96048e-36
5.33576e-37
3.13352e-35
8.12687e-36
2.75715e-35
9.14005e-35
1.6457e-35
2.6094e-33
9.15633e-35
-2.59811e-35
2.05306e-36
-8.24341e-37
1.25529e-36
-6.11862e-37
2.70041e-37
1.31623e-37
6.35233e-38
3.45577e-38
1.07002e-38
7.10618e-39
1.77861e-39
1.03113e-39
2.51053e-40
1.41436e-40
3.40684e-41
1.70824e-41
4.18369e-42
1.98559e-42
4.91761e-43
2.14173e-43
5.38806e-44
2.22644e-44
5.6605e-45
2.1922e-45
5.63393e-46
2.07696e-46
5.37284e-47
1.80026e-47
4.82404e-48
2.01803e-48
4.9939e-49
7.35078e-49
9.9221e-50
1.87352e-49
2.14798e-50
4.58895e-50
4.79465e-51
8.47643e-51
8.68255e-52
1.42817e-51
1.43756e-52
2.07358e-52
2.07903e-53
2.79139e-53
2.8473e-54
3.41215e-54
1.04819e-54
3.32569e-55
7.9228e-54
-6.23894e-55
8.96647e-53
-7.33163e-54
1.04851e-51
-8.2884e-53
1.24078e-50
-9.58882e-52
1.47549e-49
-1.14388e-50
1.72984e-48
-1.38021e-49
1.9858e-47
-1.67523e-48
2.20544e-46
-2.00212e-47
2.36299e-45
-2.34747e-46
2.42351e-44
-2.65929e-45
2.37877e-43
-2.91181e-44
2.21364e-42
-3.02489e-43
1.9566e-41
-2.95839e-42
1.61422e-40
-2.54129e-41
1.24755e-39
-1.64686e-40
8.69297e-39
7.65061e-41
5.4383e-38
2.67169e-38
2.748e-37
6.00535e-37
1.00394e-36
8.77404e-36
1.96516e-36
9.53496e-35
1.84198e-36
7.1381e-35
9.55555e-35
7.18673e-37
2.30646e-37
-6.29748e-37
-2.38327e-41
-1.04499e-37
1.05066e-38
1.57454e-38
5.66785e-39
5.64096e-39
1.305e-39
1.27131e-39
2.65544e-40
1.97988e-40
4.21665e-41
2.83237e-41
6.22185e-42
3.5515e-42
8.09496e-43
4.23954e-43
9.94136e-44
4.68354e-44
1.12593e-44
4.95946e-45
1.21431e-45
4.96288e-46
1.23399e-46
4.77285e-47
1.20004e-47
4.32399e-48
1.1073e-48
4.16284e-49
1.0437e-49
7.7712e-50
1.31431e-50
1.60076e-50
2.07755e-51
3.6378e-51
3.96256e-52
6.60613e-52
6.80675e-53
1.10901e-52
1.10394e-53
1.61298e-53
1.57914e-54
2.17762e-54
1.12035e-55
2.68555e-55
-1.43925e-54
4.8713e-56
-2.08863e-53
2.86034e-55
-2.89181e-52
4.26652e-54
-3.89093e-51
6.1745e-53
-5.07845e-50
8.61058e-52
-6.43752e-49
1.16075e-50
-7.89528e-48
1.51286e-49
-9.38947e-47
1.91053e-48
-1.07577e-45
2.33066e-47
-1.1929e-44
2.75421e-46
-1.26614e-43
3.13235e-45
-1.29869e-42
3.44796e-44
-1.26207e-41
3.6337e-43
-1.18527e-40
3.71798e-42
-1.03516e-39
3.64207e-41
-8.76105e-39
3.54825e-40
-6.59504e-38
3.39149e-39
-4.82266e-37
3.39529e-38
-2.69341e-36
3.30814e-37
-1.45374e-35
3.14019e-36
-1.21812e-35
2.32486e-35
1.24603e-35
1.2055e-34
2.32696e-35
1.45023e-35
2.06854e-38
-1.20234e-37
-9.77444e-39
-2.08006e-38
-1.08547e-39
8.98688e-40
2.81918e-40
6.9173e-40
1.13748e-40
1.88824e-40
2.88227e-41
3.23915e-41
5.10129e-42
4.98383e-42
8.05755e-43
6.58488e-43
1.09894e-43
8.18978e-44
1.39636e-44
9.33687e-45
1.62424e-45
1.01384e-45
1.78848e-46
1.035e-46
1.84903e-47
1.01229e-47
1.82481e-48
9.38681e-49
1.71005e-49
8.66257e-50
1.58222e-50
1.05626e-50
1.66562e-51
1.5886e-51
2.09306e-52
3.03014e-52
3.32676e-53
5.19077e-53
5.272e-54
8.51243e-54
8.248e-55
1.22883e-54
1.19774e-55
1.65644e-55
5.90542e-56
2.29799e-56
6.27367e-55
4.27124e-56
8.7661e-54
5.99723e-55
1.19586e-52
8.67849e-54
1.58748e-51
1.22473e-52
2.04495e-50
1.6818e-51
2.55662e-49
2.2479e-50
3.08983e-48
2.91625e-49
3.61368e-47
3.67565e-48
4.06494e-46
4.48125e-47
4.41054e-45
5.29714e-46
4.56966e-44
6.02871e-45
4.55053e-43
6.64215e-44
4.27861e-42
7.00664e-43
3.85238e-41
7.17224e-42
3.20967e-40
7.0187e-41
2.54943e-39
6.80536e-40
1.78977e-38
6.42777e-39
1.18175e-37
6.30803e-38
5.93514e-37
5.98209e-37
2.61844e-36
5.55289e-36
2.13258e-36
4.01797e-35
-2.11506e-36
2.07844e-34
4.012e-35
-2.58421e-36
2.38759e-39
-1.47717e-38
-2.27094e-39
-2.8959e-39
-3.91078e-40
-5.92465e-41
-2.03799e-41
5.93412e-41
6.35e-42
2.06072e-41
2.65341e-42
3.90352e-42
5.50873e-43
6.40975e-43
9.52612e-44
8.87333e-44
1.3751e-44
1.14249e-44
1.81994e-45
1.33863e-45
2.18189e-46
1.48496e-46
2.45979e-47
1.54299e-47
2.59114e-48
1.53124e-48
2.5972e-49
1.44138e-49
2.46837e-50
1.32363e-50
2.2788e-51
1.36879e-51
2.19559e-52
1.65073e-52
2.33558e-53
2.58361e-53
3.03597e-54
4.0498e-54
4.25229e-55
6.37278e-55
6.3416e-56
9.05526e-56
2.81826e-56
1.21384e-56
2.92304e-55
1.87667e-57
4.20925e-54
6.14257e-57
5.93398e-53
8.89702e-56
8.14367e-52
1.29257e-54
1.08795e-50
1.83226e-53
1.41109e-49
2.52865e-52
1.77781e-48
3.39911e-51
2.16703e-47
4.43733e-50
2.5598e-46
5.63329e-49
2.91186e-45
6.92509e-48
3.20199e-44
8.2778e-47
3.36824e-43
9.58659e-46
3.41747e-42
1.09448e-44
3.28279e-41
1.25282e-43
3.03803e-40
1.5441e-42
2.6126e-39
2.16997e-41
2.16559e-38
3.58545e-40
1.59629e-37
6.32274e-39
1.13103e-36
1.08125e-37
6.13609e-36
1.63461e-36
3.12301e-35
2.06383e-35
2.60884e-35
2.01986e-34
-2.60666e-35
4.1166e-34
2.01583e-34
-3.08691e-35
2.52594e-40
-2.04773e-39
-2.90875e-40
-4.17105e-40
-5.74641e-41
-3.42269e-41
-6.26385e-42
2.59877e-42
3.1736e-44
1.88095e-42
1.97792e-43
4.16023e-43
5.03718e-44
7.46119e-44
9.56907e-45
1.09176e-44
1.45928e-45
1.46369e-45
2.00539e-46
1.76724e-46
2.47196e-47
2.00694e-47
2.84684e-48
2.1246e-48
3.0507e-49
2.14071e-49
3.10093e-50
2.04283e-50
2.98341e-51