/*--------------------------------*- C++ -*----------------------------------*\
| =========                 |                                                 |
| \\      /  F ield         | OpenFOAM: The Open Source CFD Toolbox           |
|  \\    /   O peration     | Version:  2.4.0                                 |
|   \\  /    A nd           | Web:      www.OpenFOAM.org                      |
|    \\/     M anipulation  |                                                 |
\*---------------------------------------------------------------------------*/
FoamFile
{
    version     2.0;
    format      ascii;
    class       volVectorField;
    location    "0.85";
    object      U;
}
// * * * * * * * * * * * * * * * * * * * * * * * * * * * * * * * * * * * * * //

dimensions      [0 1 -1 0 0 0 0];

internalField   nonuniform List<vector> 
7700
(
(1.39246e-35 4.53715e-36 0)
(1.10769e-34 2.82805e-35 0)
(5.25484e-34 1.71995e-34 0)
(4.50747e-33 1.23677e-34 0)
(4.08053e-33 -3.29619e-34 0)
(-4.07771e-33 -3.2896e-34 0)
(-4.49048e-33 1.29357e-34 0)
(-3.99491e-34 2.05386e-34 0)
(5.28034e-34 2.29328e-34 0)
(5.03547e-33 3.06446e-34 0)
(8.71366e-33 -1.7132e-34 0)
(6.53446e-34 -4.53295e-34 0)
(-3.42653e-33 1.23675e-34 0)
(4.20844e-33 2.95654e-34 0)
(4.52467e-33 -1.29446e-34 0)
(5.28034e-34 -1.72758e-34 0)
(1.11312e-34 -2.8386e-35 0)
(1.47336e-35 -5.02329e-36 0)
(2.22378e-36 -6.70052e-37 0)
(2.77624e-37 -8.93209e-38 0)
(3.51855e-38 -1.05266e-38 0)
(4.01696e-39 -1.21106e-39 0)
(4.50208e-40 -1.29031e-40 0)
(5.17618e-41 -1.20251e-41 0)
(5.21376e-41 1.2147e-41 0)
(4.545e-40 1.3021e-40 0)
(4.05907e-39 1.22307e-39 0)
(3.55873e-38 1.06422e-38 0)
(2.81182e-37 9.04002e-38 0)
(2.25485e-36 6.79341e-37 0)
(1.49752e-35 5.10183e-36 0)
(1.1325e-34 2.89643e-35 0)
(5.40473e-34 1.7709e-34 0)
(4.62069e-33 1.52629e-34 0)
(4.62069e-33 -1.52629e-34 0)
(5.40473e-34 -1.7709e-34 0)
(1.1325e-34 -2.89643e-35 0)
(1.49752e-35 -5.10183e-36 0)
(2.25485e-36 -6.79343e-37 0)
(2.81174e-37 -9.04143e-38 0)
(3.55389e-38 -1.07394e-38 0)
(3.79835e-39 -1.79218e-39 0)
(-5.22228e-40 -3.21527e-39 0)
(-3.29689e-39 -1.17033e-38 0)
(2.51254e-40 -4.16122e-38 0)
(4.25384e-39 -7.58991e-39 0)
(5.71222e-36 -2.04635e-36 0)
(4.0355e-35 -1.51568e-35 0)
(1.82649e-34 -9.19913e-35 0)
(9.86779e-34 -6.58628e-35 0)
(8.39363e-34 1.759e-34 0)
(-8.381e-34 1.7558e-34 0)
(-9.79534e-34 -6.87347e-35 0)
(-1.3581e-34 -1.09764e-34 0)
(1.83789e-34 -1.22721e-34 0)
(1.17055e-33 -1.63313e-34 0)
(1.87282e-33 9.16654e-35 0)
(2.30355e-34 2.41762e-34 0)
(-6.08746e-34 -6.58621e-35 0)
(8.87042e-34 -1.57848e-34 0)
(9.94118e-34 6.87755e-35 0)
(1.83789e-34 9.23603e-35 0)
(4.06217e-35 1.52262e-35 0)
(6.24495e-36 2.55281e-36 0)
(9.83965e-37 3.24983e-37 0)
(1.3141e-37 4.09211e-38 0)
(1.71842e-38 4.59227e-39 0)
(2.03647e-39 5.04663e-40 0)
(2.33452e-40 5.1704e-41 0)
(2.75271e-41 4.66919e-42 0)
(2.77328e-41 -4.7138e-42 0)
(2.35765e-40 -5.21479e-41 0)
(2.05879e-39 -5.09328e-40 0)
(1.7392e-38 -4.63877e-39 0)
(1.33208e-37 -4.1373e-38 0)
(9.99063e-37 -3.2906e-37 0)
(6.35871e-36 -2.58903e-36 0)
(4.14702e-35 -1.55093e-35 0)
(1.89016e-34 -9.45789e-35 0)
(1.02823e-33 -8.13668e-35 0)
(1.02823e-33 8.13668e-35 0)
(1.89016e-34 9.45789e-35 0)
(4.14702e-35 1.55093e-35 0)
(6.35871e-36 2.58903e-36 0)
(9.99052e-37 3.29047e-37 0)
(1.33133e-37 4.12752e-38 0)
(1.69529e-38 3.95173e-39 0)
(-3.23435e-40 -3.60532e-39 0)
(-8.76793e-39 -2.27251e-38 0)
(-3.11736e-38 -8.88699e-38 0)
(2.12981e-39 -3.20561e-37 0)
(3.81528e-38 -5.86234e-38 0)
(1.75033e-36 -8.99484e-37 0)
(1.0407e-35 -6.21319e-36 0)
(3.68394e-35 -2.97458e-35 0)
(1.5489e-34 -1.91422e-35 0)
(1.26972e-34 5.6391e-35 0)
(-1.26552e-34 5.62358e-35 0)
(-1.52721e-34 -2.04277e-35 0)
(-2.45231e-35 -3.71177e-35 0)
(3.72141e-35 -4.23684e-35 0)
(1.92097e-34 -5.13211e-35 0)
(2.9412e-34 2.95869e-35 0)
(4.94321e-35 7.55328e-35 0)
(-7.7448e-35 -1.91417e-35 0)
(1.39557e-34 -4.88839e-35 0)
(1.57091e-34 2.04485e-35 0)
(3.7214e-35 2.99253e-35 0)
(1.04834e-35 6.2451e-36 0)
(1.84096e-36 1.13107e-36 0)
(3.21589e-37 1.57714e-37 0)
(4.60352e-38 2.08372e-38 0)
(6.34838e-39 2.46269e-39 0)
(7.82889e-40 2.80144e-40 0)
(9.26137e-41 2.97165e-41 0)
(1.12179e-41 2.74748e-42 0)
(1.13045e-41 -2.77504e-42 0)
(9.35717e-41 -2.99846e-41 0)
(7.91943e-40 -2.82889e-40 0)
(6.43053e-39 -2.48933e-39 0)
(4.67234e-38 -2.1087e-38 0)
(3.27134e-37 -1.5989e-37 0)
(1.88046e-36 -1.14938e-36 0)
(1.07573e-35 -6.38141e-36 0)
(3.87207e-35 -3.08937e-35 0)
(1.6564e-34 -2.55207e-35 0)
(1.6564e-34 2.55207e-35 0)
(3.87207e-35 3.08937e-35 0)
(1.07573e-35 6.38141e-36 0)
(1.88045e-36 1.14937e-36 0)
(3.2706e-37 1.59806e-37 0)
(4.62031e-38 2.04517e-38 0)
(3.33049e-39 -2.02526e-39 0)
(-1.62505e-38 -2.71215e-38 0)
(-6.52964e-38 -1.54086e-37 0)
(-2.30048e-37 -6.1267e-37 0)
(1.3888e-38 -2.24543e-36 0)
(2.76216e-37 -4.10428e-37 0)
(3.8174e-37 -3.15496e-37 0)
(1.95828e-36 -1.9675e-36 0)
(5.42062e-36 -8.66707e-36 0)
(1.86702e-35 -5.35156e-36 0)
(1.48954e-35 1.64211e-35 0)
(-1.47965e-35 1.6365e-35 0)
(-1.82017e-35 -5.79277e-36 0)
(-3.0567e-36 -1.10236e-35 0)
(5.50742e-36 -1.26621e-35 0)
(2.41755e-35 -1.48489e-35 0)
(3.59137e-35 8.60605e-36 0)
(7.84623e-36 2.17718e-35 0)
(-7.02647e-36 -5.35049e-36 0)
(1.73197e-35 -1.40128e-35 0)
(1.91456e-35 5.80071e-36 0)
(5.50742e-36 8.72934e-36 0)
(1.97312e-36 1.97544e-36 0)
(3.91999e-37 3.86143e-37 0)
(7.45423e-38 5.72411e-38 0)
(1.13243e-38 7.97268e-39 0)
(1.62849e-39 9.83307e-40 0)
(2.07593e-40 1.15857e-40 0)
(2.51779e-41 1.26461e-41 0)
(3.11868e-42 1.19455e-42 0)
(3.14339e-42 -1.20699e-42 0)
(2.54478e-41 -1.2765e-41 0)
(2.10101e-40 -1.1705e-40 0)
(1.65076e-39 -9.94613e-40 0)
(1.15061e-38 -8.07562e-39 0)
(7.59576e-38 -5.81059e-38 0)
(4.01644e-37 -3.93107e-37 0)
(2.03592e-36 -2.02447e-36 0)
(5.8216e-36 -9.05626e-36 0)
(2.0704e-35 -7.37398e-36 0)
(2.0704e-35 7.37398e-36 0)
(5.8216e-36 9.05626e-36 0)
(2.03592e-36 2.02447e-36 0)
(4.0158e-37 3.93047e-37 0)
(7.54741e-38 5.7601e-38 0)
(8.08189e-39 4.20423e-39 0)
(-1.90214e-38 -2.68998e-38 0)
(-1.15215e-37 -1.71999e-37 0)
(-4.51158e-37 -9.87055e-37 0)
(-1.61494e-36 -4.0162e-36 0)
(8.28317e-38 -1.50148e-35 0)
(1.89834e-36 -2.74053e-36 0)
(5.69598e-38 -1.51995e-37 0)
(3.39229e-37 -4.80437e-37 0)
(6.57109e-37 -1.85055e-36 0)
(1.66431e-36 -1.08891e-36 0)
(1.28269e-36 3.45654e-36 0)
(-1.26121e-36 3.44364e-36 0)
(-1.57131e-36 -1.18887e-36 0)
(-2.44084e-37 -2.36376e-36 0)
(6.71502e-37 -2.73058e-36 0)
(2.33267e-36 -3.10783e-36 0)
(3.34959e-36 1.81064e-36 0)
(1.07543e-36 4.54051e-36 0)
(-2.01665e-37 -1.08252e-36 0)
(1.70367e-36 -2.90725e-36 0)
(1.75344e-36 1.19091e-36 0)
(6.71501e-37 1.84167e-36 0)
(3.35133e-37 4.46833e-37 0)
(7.45295e-38 9.22547e-38 0)
(1.53587e-38 1.43641e-38 0)
(2.45344e-39 2.07897e-39 0)
(3.66276e-40 2.64963e-40 0)
(4.80206e-41 3.20258e-41 0)
(5.9536e-42 3.57237e-42 0)
(7.51664e-43 3.4278e-43 0)
(7.57756e-43 -3.46455e-43 0)
(6.01939e-42 -3.60702e-42 0)
(4.86231e-41 -3.23682e-41 0)
(3.71529e-40 -2.6815e-40 0)
(2.49536e-39 -2.10734e-39 0)
(1.56756e-38 -1.45963e-38 0)
(7.66047e-38 -9.40615e-38 0)
(3.47942e-37 -4.59054e-37 0)
(7.29936e-37 -1.91903e-36 0)
(2.00911e-36 -1.54131e-36 0)
(2.00911e-36 1.5413e-36 0)
(7.2993e-37 1.91902e-36 0)
(3.47896e-37 4.59017e-37 0)
(7.62181e-38 9.3733e-38 0)
(1.27199e-38 1.17968e-38 0)
(-1.87243e-38 -1.96449e-38 0)
(-1.29794e-37 -1.59086e-37 0)
(-7.40785e-37 -1.00339e-36 0)
(-2.96335e-36 -5.89478e-36 0)
(-1.08356e-35 -2.47089e-35 0)
(4.43219e-37 -9.44668e-35 0)
(1.24309e-35 -1.7249e-35 0)
(-1.13116e-37 -5.34248e-37 0)
(1.02699e-37 -3.29806e-37 0)
(9.43119e-38 -5.20159e-37 0)
(1.0805e-37 -2.45227e-37 0)
(6.72816e-38 6.60343e-37 0)
(-5.76581e-38 6.64865e-37 0)
(-7.33765e-38 -2.27094e-37 0)
(-3.58809e-39 -4.62777e-37 0)
(7.16595e-38 -5.36182e-37 0)
(1.60731e-37 -5.99775e-37 0)
(2.15788e-37 3.49827e-37 0)
(1.35354e-37 8.73736e-37 0)
(7.37419e-38 -2.04217e-37 0)
(1.29486e-37 -5.57144e-37 0)
(1.05048e-37 2.27322e-37 0)
(7.16552e-38 3.56678e-37 0)
(5.2063e-38 9.02925e-38 0)
(1.27273e-38 1.95408e-38 0)
(2.79435e-39 3.16315e-39 0)
(4.64906e-40 4.73332e-40 0)
(7.15281e-41 6.19825e-41 0)
(9.60004e-42 7.65806e-42 0)
(1.21225e-42 8.69783e-43 0)
(1.5558e-43 8.4579e-44 0)
(1.56866e-43 -8.55075e-44 0)
(1.226e-42 -8.78443e-43 0)
(9.7244e-42 -7.74255e-42 0)
(7.25955e-41 -6.27571e-41 0)
(4.73265e-40 -4.801e-40 0)
(2.856e-39 -3.21729e-39 0)
(1.31183e-38 -1.99504e-38 0)
(5.43731e-38 -9.29669e-38 0)
(8.14443e-38 -3.72932e-37 0)
(1.43448e-37 -2.97122e-37 0)
(1.43446e-37 2.9712e-37 0)
(8.14161e-38 3.72913e-37 0)
(5.41199e-38 9.27849e-38 0)
(1.09654e-38 1.82996e-38 0)
(-1.38186e-38 -1.10431e-38 0)
(-1.21168e-37 -1.12158e-37 0)
(-7.60599e-37 -8.42752e-37 0)
(-4.42889e-36 -5.44846e-36 0)
(-1.82242e-35 -3.30538e-35 0)
(-6.82659e-35 -1.44108e-34 0)
(1.97503e-36 -5.67986e-34 0)
(7.60616e-35 -1.03444e-34 0)
(-7.54656e-37 -3.20024e-36 0)
(3.9862e-37 -1.47231e-36 0)
(1.89667e-37 -1.08393e-36 0)
(1.21838e-37 -2.81083e-37 0)
(2.6352e-38 6.12059e-38 0)
(1.20386e-38 1.05691e-37 0)
(7.72224e-39 -3.99287e-38 0)
(3.4231e-39 -8.06327e-38 0)
(7.23957e-39 -9.34826e-38 0)
(3.2015e-39 -1.02962e-37 0)
(1.31278e-39 6.01066e-38 0)
(1.69213e-38 1.49591e-37 0)
(2.15452e-38 -3.43291e-38 0)
(5.79863e-39 -9.50293e-38 0)
(-1.40636e-39 3.86379e-38 0)
(7.21418e-39 6.14225e-38 0)
(7.84217e-39 1.61254e-38 0)
(2.05667e-39 3.62429e-39 0)
(4.7403e-40 6.06e-40 0)
(8.13766e-41 9.31708e-41 0)
(1.28276e-41 1.24798e-41 0)
(1.7547e-42 1.57021e-42 0)
(2.24988e-43 1.8109e-43 0)
(2.92729e-44 1.7809e-44 0)
(2.95189e-44 -1.80086e-44 0)
(2.27596e-43 -1.82934e-43 0)
(1.77805e-42 -1.58799e-42 0)
(1.30253e-41 -1.26408e-41 0)
(8.29007e-41 -9.45557e-41 0)
(4.8505e-40 -6.1687e-40 0)
(2.12477e-39 -3.70462e-39 0)
(8.23129e-39 -1.66351e-38 0)
(8.77089e-39 -6.44158e-38 0)
(4.21389e-39 -5.09524e-38 0)
(4.20069e-39 5.09438e-38 0)
(8.6296e-39 6.43348e-38 0)
(6.95121e-39 1.58439e-38 0)
(-8.90468e-39 -3.56103e-39 0)
(-8.62933e-38 -6.31531e-38 0)
(-6.45568e-37 -5.13747e-37 0)
(-4.13421e-36 -3.94716e-36 0)
(-2.47723e-35 -2.6417e-35 0)
(-1.05566e-34 -1.67103e-34 0)
(-4.08677e-34 -7.68473e-34 0)
(6.58433e-36 -3.13047e-33 0)
(4.40565e-34 -5.71754e-34 0)
(-3.93382e-36 -1.83614e-35 0)
(3.16495e-36 -8.32381e-36 0)
(1.29627e-36 -5.9604e-36 0)
(7.93063e-37 -1.40781e-36 0)
(1.85949e-37 -2.80454e-37 0)
(4.29267e-38 -2.98772e-38 0)
(9.26917e-39 -1.35144e-38 0)
(1.86545e-39 -1.41159e-38 0)
(8.69697e-40 -1.54242e-38 0)
(-1.3105e-39 -1.66887e-38 0)
(-2.42731e-39 9.73269e-39 0)
(2.14527e-39 2.41732e-38 0)
(3.97623e-39 -5.46955e-39 0)
(-2.99497e-40 -1.53083e-38 0)
(-1.65512e-39 6.21361e-39 0)
(7.27169e-40 9.96673e-39 0)
(1.13584e-39 2.6878e-39 0)
(3.13133e-40 6.23055e-40 0)
(7.47748e-41 1.06905e-40 0)
(1.31556e-41 1.68063e-41 0)
(2.1143e-42 2.29309e-42 0)
(2.93819e-43 2.92919e-43 0)
(3.81581e-44 3.42144e-44 0)
(5.02322e-45 3.39675e-45 0)
(5.06603e-45 -3.43549e-45 0)
(3.86089e-44 -3.45693e-44 0)
(2.97816e-43 -2.96312e-43 0)
(2.14778e-42 -2.32347e-42 0)
(1.34103e-41 -1.70642e-41 0)
(7.65859e-41 -1.08897e-40 0)
(3.24094e-40 -6.37501e-40 0)
(1.19682e-39 -2.77734e-39 0)
(9.6069e-40 -1.04785e-38 0)
(-8.65156e-40 -8.24731e-39 0)
(-9.22553e-40 8.21485e-39 0)
(3.40287e-40 1.01723e-38 0)
(-4.49242e-39 -2.52229e-40 0)
(-4.94401e-38 -2.76189e-38 0)
(-3.98645e-37 -2.53012e-37 0)
(-3.03491e-36 -2.09334e-36 0)
(-1.99882e-35 -1.66773e-35 0)
(-1.23837e-34 -1.17154e-34 0)
(-5.50547e-34 -7.87818e-34 0)
(-2.21064e-33 -3.90057e-33 0)
(4.80274e-36 -1.67666e-32 0)
(2.28261e-33 -3.03098e-33 0)
(-1.49568e-35 -1.00354e-34 0)
(2.61997e-35 -4.33927e-35 0)
(9.27698e-36 -3.11212e-35 0)
(4.84615e-36 -7.13332e-36 0)
(1.08457e-36 -1.46769e-36 0)
(2.28458e-37 -2.28633e-37 0)
(3.73806e-38 -3.50078e-38 0)
(5.73578e-39 -6.41876e-39 0)
(8.19723e-40 -2.88104e-39 0)
(-2.29023e-40 -2.58605e-39 0)
(-5.25669e-40 1.46726e-39 0)
(2.79364e-40 3.65228e-39 0)
(6.21866e-40 -8.16124e-40 0)
(-1.25776e-40 -2.30692e-39 0)
(-3.40825e-40 9.34903e-40 0)
(7.75407e-41 1.51173e-39 0)
(1.59832e-40 4.17172e-40 0)
(4.55704e-41 9.91393e-41 0)
(1.11685e-41 1.73776e-41 0)
(2.00273e-42 2.78205e-42 0)
(3.26912e-43 3.855e-43 0)
(4.60222e-44 4.98719e-44 0)
(6.04091e-45 5.88879e-45 0)
(8.03123e-46 5.8937e-46 0)
(8.10047e-46 -5.96194e-46 0)
(6.11336e-45 -5.95086e-45 0)
(4.66595e-44 -5.04607e-44 0)
(3.32197e-43 -3.90725e-43 0)
(2.04244e-42 -2.82592e-42 0)
(1.14465e-41 -1.77123e-41 0)
(4.72171e-41 -1.01529e-40 0)
(1.68708e-40 -4.31725e-40 0)
(1.09079e-40 -1.59339e-39 0)
(-2.54387e-40 -1.25496e-39 0)
(-4.75166e-40 1.16431e-39 0)
(-2.30553e-39 7.28104e-40 0)
(-2.23053e-38 -8.25272e-39 0)
(-2.00246e-37 -8.23728e-38 0)
(-1.64057e-36 -7.57588e-37 0)
(-1.28476e-35 -6.49591e-36 0)
(-8.75271e-35 -5.45732e-35 0)
(-5.66174e-34 -4.14074e-34 0)
(-2.64787e-33 -3.0477e-33 0)
(-1.12982e-32 -1.68839e-32 0)
(-9.43571e-35 -7.62875e-32 0)
(1.11261e-32 -1.39372e-32 0)
(-1.20252e-35 -4.9232e-34 0)
(2.158e-34 -2.12763e-34 0)
(6.45699e-35 -1.55842e-34 0)
(2.70695e-35 -3.41192e-35 0)
(5.63519e-36 -6.75566e-36 0)
(1.1249e-36 -1.02399e-36 0)
(1.76119e-37 -1.46542e-37 0)
(2.60366e-38 -1.87707e-38 0)
(3.39395e-39 -2.56283e-39 0)
(3.65201e-40 -6.11165e-40 0)
(-3.75618e-41 1.86109e-40 0)
(4.11742e-41 5.23033e-40 0)
(8.85043e-41 -1.16454e-40 0)
(-2.22137e-41 -3.31242e-40 0)
(-5.30048e-41 1.34061e-40 0)
(8.78421e-42 2.18208e-40 0)
(2.16196e-41 6.13304e-41 0)
(6.31398e-42 1.48573e-41 0)
(1.57802e-42 2.64805e-42 0)
(2.87394e-43 4.2995e-43 0)
(4.75169e-44 6.03023e-44 0)
(6.76339e-45 7.87871e-45 0)
(8.95881e-46 9.38252e-46 0)
(1.20131e-46 9.44952e-47 0)
(1.21169e-46 -9.56039e-47 0)
(9.06647e-46 -9.48289e-46 0)
(6.85681e-45 -7.97343e-45 0)
(4.82764e-44 -6.11383e-44 0)
(2.92921e-43 -4.3693e-43 0)
(1.61458e-42 -2.70108e-42 0)
(6.50396e-42 -1.52353e-41 0)
(2.23326e-41 -6.36583e-41 0)
(7.06496e-42 -2.31785e-40 0)
(-1.0755e-40 -1.96647e-40 0)
(-7.58587e-40 -7.80116e-42 0)
(-7.2042e-39 -1.74989e-39 0)
(-6.82118e-38 -2.02111e-38 0)
(-6.20641e-37 -1.97258e-37 0)
(-5.21163e-36 -1.88363e-36 0)
(-4.20955e-35 -1.70964e-35 0)
(-2.98065e-34 -1.57307e-34 0)
(-2.01882e-33 -1.3484e-33 0)
(-1.0018e-32 -1.14457e-32 0)
(-4.54412e-32 -7.37678e-32 0)
(-7.0853e-34 -3.75723e-31 0)
(4.05408e-32 -6.48678e-32 0)
(-1.03947e-35 -3.42561e-36 0)
(-8.86293e-35 -2.23872e-35 0)
(-4.36581e-34 -1.49891e-34 0)
(-4.1091e-33 -1.11375e-34 0)
(-3.75184e-33 2.8794e-34 0)
(3.75184e-33 2.8794e-34 0)
(4.1091e-33 -1.11375e-34 0)
(4.3659e-34 -1.49888e-34 0)
(8.87747e-35 -2.23917e-35 0)
(1.08404e-35 -3.75517e-36 0)
(1.55779e-36 -4.64065e-37 0)
(1.78754e-37 -5.91499e-38 0)
(-2.31053e-42 -1.28674e-38 0)
(-1.78779e-37 -5.91567e-38 0)
(-1.55804e-36 -4.64135e-37 0)
(-1.08427e-35 -3.75587e-36 0)
(-8.87966e-35 -2.23982e-35 0)
(-4.36774e-34 -1.49947e-34 0)
(-4.11068e-33 -1.11846e-34 0)
(-3.76287e-33 2.84125e-34 0)
(3.66149e-33 2.65078e-34 0)
(3.66149e-33 -2.65078e-34 0)
(-3.76287e-33 -2.84125e-34 0)
(-4.11068e-33 1.11846e-34 0)
(-4.36774e-34 1.49947e-34 0)
(-8.87969e-35 2.23981e-35 0)
(-1.08451e-35 3.75516e-36 0)
(-1.58023e-36 4.57569e-37 0)
(-3.64267e-37 -6.27807e-40 0)
(-1.59938e-36 -4.6336e-37 0)
(-1.10041e-35 -3.80712e-36 0)
(-9.01715e-35 -2.2803e-35 0)
(-4.46034e-34 -1.53232e-34 0)
(-4.18843e-33 -1.30423e-34 0)
(-4.1091e-33 1.57099e-34 0)
(-2.07297e-39 3.07404e-34 0)
(4.10908e-33 1.57094e-34 0)
(4.18827e-33 -1.30467e-34 0)
(4.44415e-34 -1.53327e-34 0)
(8.24384e-35 -2.03481e-35 0)
(-4.2802e-36 1.54801e-36 0)
(-3.22648e-35 1.19943e-35 0)
(-1.52805e-34 8.01436e-35 0)
(-9.07547e-34 5.93221e-35 0)
(-7.83087e-34 -1.5363e-34 0)
(7.83087e-34 -1.5363e-34 0)
(9.07548e-34 5.9322e-35 0)
(1.52811e-34 8.0143e-35 0)
(3.23395e-35 1.201e-35 0)
(4.6009e-36 1.90069e-36 0)
(6.87743e-37 2.24075e-37 0)
(8.44968e-38 2.69206e-38 0)
(-1.245e-42 5.58497e-39 0)
(-8.45097e-38 2.69232e-38 0)
(-6.87871e-37 2.24103e-37 0)
(-4.60209e-36 1.90099e-36 0)
(-3.23502e-35 1.20128e-35 0)
(-1.52898e-34 8.017e-35 0)
(-9.08247e-34 5.95489e-35 0)
(-7.87775e-34 -1.51702e-34 0)
(7.50049e-34 -1.41393e-34 0)
(7.50049e-34 1.41393e-34 0)
(-7.87775e-34 1.51702e-34 0)
(-9.08247e-34 -5.95489e-35 0)
(-1.52898e-34 -8.017e-35 0)
(-3.23503e-35 -1.20128e-35 0)
(-4.60329e-36 -1.90069e-36 0)
(-6.98698e-37 -2.21258e-37 0)
(-1.72414e-37 2.6148e-40 0)
(-7.07983e-37 2.23783e-37 0)
(-4.67823e-36 1.9245e-36 0)
(-3.29513e-35 1.22099e-35 0)
(-1.568e-34 8.18438e-35 0)
(-9.35899e-34 6.96313e-35 0)
(-9.07548e-34 -8.37958e-35 0)
(-1.13125e-39 -1.64141e-34 0)
(9.07537e-34 -8.37938e-35 0)
(9.35815e-34 6.96423e-35 0)
(1.56042e-34 8.17352e-35 0)
(2.90915e-35 9.05806e-36 0)
(-1.32003e-36 6.79935e-37 0)
(-8.40675e-36 4.94311e-36 0)
(-3.10349e-35 2.60946e-35 0)
(-1.43731e-34 1.7589e-35 0)
(-1.19951e-34 -4.95986e-35 0)
(1.19951e-34 -4.95987e-35 0)
(1.43731e-34 1.75889e-35 0)
(3.10358e-35 2.60942e-35 0)
(8.42158e-36 4.94922e-36 0)
(1.36552e-36 8.42252e-37 0)
(2.26175e-37 1.0887e-37 0)
(2.9702e-38 1.37075e-38 0)
(-5.17753e-43 2.99407e-39 0)
(-2.97072e-38 1.37091e-38 0)
(-2.26226e-37 1.08886e-37 0)
(-1.36598e-36 8.42414e-37 0)
(-8.42556e-36 4.95074e-36 0)
(-3.10664e-35 2.61079e-35 0)
(-1.43961e-34 1.76993e-35 0)
(-1.21347e-34 -4.87427e-35 0)
(1.11299e-34 -4.45391e-35 0)
(1.11299e-34 4.45391e-35 0)
(-1.21347e-34 4.87427e-35 0)
(-1.43961e-34 -1.76993e-35 0)
(-3.10664e-35 -2.61079e-35 0)
(-8.42561e-36 -4.95072e-36 0)
(-1.36644e-36 -8.42251e-37 0)
(-2.30248e-37 -1.07359e-37 0)
(-6.07221e-38 1.44376e-40 0)
(-2.33671e-37 1.08708e-37 0)
(-1.39261e-36 8.54286e-37 0)
(-8.62122e-36 5.04587e-36 0)
(-3.22018e-35 2.68398e-35 0)
(-1.50987e-34 2.17925e-35 0)
(-1.43731e-34 -2.77081e-35 0)
(-2.72937e-40 -5.39002e-35 0)
(1.43729e-34 -2.77069e-35 0)
(1.50971e-34 2.17993e-35 0)
(3.20634e-35 2.6802e-35 0)
(7.89687e-36 3.73477e-36 0)
(-2.91645e-37 2.31127e-37 0)
(-1.59787e-36 1.56571e-36 0)
(-4.6011e-36 7.62587e-36 0)
(-1.75083e-35 4.96018e-36 0)
(-1.42602e-35 -1.44887e-35 0)
(1.42602e-35 -1.44887e-35 0)
(1.75083e-35 4.96017e-36 0)
(4.60111e-36 7.62584e-36 0)
(1.59948e-36 1.56865e-36 0)
(2.92647e-37 2.88564e-37 0)
(5.26896e-38 3.96556e-38 0)
(7.32572e-39 5.26897e-39 0)
(-1.46235e-43 1.19937e-39 0)
(-7.32719e-39 5.26964e-39 0)
(-5.27035e-38 3.96624e-38 0)
(-2.92769e-37 2.88631e-37 0)
(-1.60051e-36 1.56926e-36 0)
(-4.60868e-36 7.63111e-36 0)
(-1.7562e-35 5.00042e-36 0)
(-1.45604e-35 -1.41949e-35 0)
(1.26069e-35 -1.28798e-35 0)
(1.26069e-35 1.28798e-35 0)
(-1.45604e-35 1.41949e-35 0)
(-1.7562e-35 -5.00042e-36 0)
(-4.60868e-36 -7.63111e-36 0)
(-1.60052e-36 -1.56925e-36 0)
(-2.92892e-37 -2.88563e-37 0)
(-5.37395e-38 -3.90498e-38 0)
(-1.50015e-38 5.96842e-41 0)
(-5.46152e-38 3.95883e-38 0)
(-2.99313e-37 2.9316e-37 0)
(-1.64566e-36 1.60363e-36 0)
(-4.8476e-36 7.87942e-36 0)
(-1.88613e-35 6.27524e-36 0)
(-1.75083e-35 -8.17797e-36 0)
(-4.29413e-41 -1.58393e-35 0)
(1.75079e-35 -8.1777e-36 0)
(1.88597e-35 6.27638e-36 0)
(4.83478e-36 7.86083e-36 0)
(1.5621e-36 1.17098e-36 0)
(-5.81193e-38 5.47485e-38 0)
(-2.74627e-37 3.54565e-37 0)
(-5.61289e-37 1.6114e-36 0)
(-1.5956e-36 1.01229e-36 0)
(-1.26239e-36 -3.05979e-36 0)
(1.26239e-36 -3.05979e-36 0)
(1.5956e-36 1.01229e-36 0)
(5.61235e-37 1.61142e-36 0)
(2.74516e-37 3.55454e-37 0)
(5.59887e-38 6.91054e-38 0)
(1.09116e-38 9.97656e-39 0)
(1.59123e-39 1.37798e-39 0)
(-3.57485e-44 3.23818e-40 0)
(-1.59158e-39 1.37817e-39 0)
(-1.09149e-38 9.9785e-39 0)
(-5.60169e-38 6.91241e-38 0)
(-2.74747e-37 3.55618e-37 0)
(-5.62883e-37 1.6128e-36 0)
(-1.60675e-36 1.02243e-36 0)
(-1.32003e-36 -2.9893e-36 0)
(9.76729e-37 -2.69419e-36 0)
(9.76729e-37 2.69419e-36 0)
(-1.32003e-36 2.9893e-36 0)
(-1.60675e-36 -1.02243e-36 0)
(-5.62883e-37 -1.6128e-36 0)
(-2.7475e-37 -3.55616e-37 0)
(-5.60455e-38 -6.91053e-38 0)
(-1.11489e-38 -9.81292e-39 0)
(-3.26357e-39 1.64802e-41 0)
(-1.13455e-38 9.95793e-39 0)
(-5.74332e-38 7.03011e-38 0)
(-2.84018e-37 3.64212e-37 0)
(-6.07726e-37 1.67176e-36 0)
(-1.82363e-36 1.3074e-36 0)
(-1.5956e-36 -1.74348e-36 0)
(-2.85014e-42 -3.3638e-36 0)
(1.59559e-36 -1.74344e-36 0)
(1.82382e-36 1.30744e-36 0)
(6.09106e-37 1.66606e-36 0)
(2.83845e-37 2.61561e-37 0)
(-1.03157e-38 1.15084e-38 0)
(-4.31166e-38 7.16172e-38 0)
(-5.98257e-38 3.1235e-37 0)
(-9.33244e-38 1.92081e-37 0)
(-6.86604e-38 -5.93596e-37 0)
(6.86605e-38 -5.93596e-37 0)
(9.3324e-38 1.92084e-37 0)
(5.98123e-38 3.12372e-37 0)
(4.30319e-38 7.19116e-38 0)
(9.60849e-39 1.46731e-38 0)
(1.99294e-39 2.20233e-39 0)
(3.02095e-40 3.14685e-40 0)
(-7.4886e-45 7.59059e-41 0)
(-3.02168e-40 3.14733e-40 0)
(-1.99361e-39 2.20281e-39 0)
(-9.61415e-39 1.46775e-38 0)
(-4.30771e-38 7.19501e-38 0)
(-6.01257e-38 3.12687e-37 0)
(-9.53628e-38 1.94324e-37 0)
(-7.85824e-38 -5.78608e-37 0)
(2.35897e-38 -5.19444e-37 0)
(2.35897e-38 5.19444e-37 0)
(-7.85824e-38 5.78608e-37 0)
(-9.53628e-38 -1.94324e-37 0)
(-6.01257e-38 -3.12687e-37 0)
(-4.30778e-38 -7.19496e-38 0)
(-9.61988e-39 -1.4673e-38 0)
(-2.03945e-39 -2.16396e-39 0)
(-6.20427e-40 3.93897e-42 0)
(-2.07778e-39 2.19787e-39 0)
(-9.88224e-39 1.49449e-38 0)
(-4.4758e-38 7.38367e-38 0)
(-6.76954e-38 3.25119e-37 0)
(-1.28473e-37 2.51248e-37 0)
(-9.3324e-38 -3.40387e-37 0)
(5.46301e-43 -6.54719e-37 0)
(9.33327e-38 -3.40386e-37 0)
(1.28584e-37 2.51192e-37 0)
(6.84974e-38 3.23605e-37 0)
(4.69216e-38 5.21176e-38 0)
(-1.37302e-39 1.87551e-39 0)
(-6.49589e-39 1.23121e-38 0)
(-5.95169e-39 5.37436e-38 0)
(1.9149e-39 3.24495e-38 0)
(2.645e-39 -1.02373e-37 0)
(-2.64349e-39 -1.02372e-37 0)
(-1.90659e-39 3.24629e-38 0)
(5.99787e-39 5.38334e-38 0)
(6.52669e-39 1.2856e-38 0)
(1.55817e-39 2.72669e-39 0)
(3.39072e-40 4.22752e-40 0)
(5.29526e-41 6.20909e-41 0)
(-1.42346e-45 1.53075e-41 0)
(-5.29664e-41 6.2101e-41 0)
(-3.39197e-40 4.22851e-40 0)
(-1.55921e-39 2.72761e-39 0)
(-6.53482e-39 1.28637e-38 0)
(-6.05288e-39 5.38955e-38 0)
(1.55928e-39 3.28934e-38 0)
(1.03046e-39 -9.95827e-38 0)
(-9.51768e-39 -8.90851e-38 0)
(-9.51768e-39 8.90851e-38 0)
(1.03046e-39 9.95827e-38 0)
(1.55928e-39 -3.28934e-38 0)
(-6.05289e-39 -5.38955e-38 0)
(-6.53495e-39 -1.28636e-38 0)
(-1.56026e-39 -2.72668e-39 0)
(-3.4744e-40 -4.15011e-40 0)
(-1.08876e-40 8.07159e-43 0)
(-3.54304e-40 4.21836e-40 0)
(-1.60609e-39 2.78012e-39 0)
(-6.81913e-39 1.32242e-38 0)
(-7.26375e-39 5.61917e-38 0)
(-3.35421e-39 4.29605e-38 0)
(1.90663e-39 -5.90357e-38 0)
(2.75866e-43 -1.13244e-37 0)
(-1.90355e-39 -5.90368e-38 0)
(3.38418e-39 4.29396e-38 0)
(7.47232e-39 5.58606e-38 0)
(7.4641e-39 9.1888e-39 0)
(5.96654e-39 6.45126e-40 0)
(1.65705e-40 -1.53287e-39 0)
(-1.54424e-40 8.13259e-39 0)
(1.69608e-39 5.10893e-39 0)
(1.48003e-39 -1.66443e-38 0)
(-1.46912e-39 -1.6636e-38 0)
(-1.62778e-39 5.19378e-39 0)
(6.00216e-40 8.73978e-39 0)
(9.49619e-40 2.14451e-39 0)
(2.37796e-40 4.69513e-40 0)
(5.35968e-41 7.46996e-41 0)
(8.56884e-42 1.12231e-41 0)
(-2.46353e-46 2.81652e-42 0)
(-8.5712e-42 1.1225e-41 0)
(-5.3618e-41 7.47183e-41 0)
(-2.3797e-40 4.69684e-40 0)
(-9.50961e-40 2.14594e-39 0)
(-6.09118e-40 8.75101e-39 0)
(1.57294e-39 5.26998e-39 0)
(1.22353e-39 -1.61543e-38 0)
(-2.47482e-39 -1.44144e-38 0)
(-2.47482e-39 1.44144e-38 0)
(1.22353e-39 1.61543e-38 0)
(1.57294e-39 -5.26998e-39 0)
(-6.09121e-40 -8.75101e-39 0)
(-9.50982e-40 -2.14592e-39 0)
(-2.38146e-40 -4.69511e-40 0)
(-5.49797e-41 -7.32748e-41 0)
(-1.76356e-41 1.50507e-43 0)
(-5.61093e-41 7.45284e-41 0)
(-2.45541e-40 4.7914e-40 0)
(-9.95686e-40 2.20937e-39 0)
(-7.91958e-40 9.14441e-39 0)
(8.70036e-40 6.93375e-39 0)
(1.62791e-39 -9.63511e-39 0)
(6.99589e-44 -1.84411e-38 0)
(-1.62721e-39 -9.63553e-39 0)
(-8.63918e-40 6.92841e-39 0)
(8.33049e-40 9.07956e-39 0)
(1.12733e-39 1.51349e-39 0)
(1.07435e-37 -2.83177e-38 0)
(1.35685e-38 -2.3275e-38 0)
(3.74807e-39 -2.24509e-39 0)
(8.35971e-40 3.41792e-40 0)
(3.52328e-40 -2.57048e-39 0)
(-2.80562e-40 -2.53038e-39 0)
(-3.29611e-40 7.77464e-40 0)
(6.34501e-41 1.32616e-39 0)
(1.34e-40 3.33071e-40 0)
(3.46598e-41 7.48041e-41 0)
(8.01727e-42 1.21584e-41 0)
(1.30537e-42 1.86087e-42 0)
(-3.94569e-47 4.74008e-43 0)
(-1.30574e-42 1.86121e-42 0)
(-8.02058e-42 1.21616e-41 0)
(-3.46865e-41 7.48335e-41 0)
(-1.34203e-40 3.33314e-40 0)
(-6.47441e-41 1.32806e-39 0)
(3.22086e-40 7.90234e-40 0)
(2.51476e-40 -2.4495e-39 0)
(-4.29718e-40 -2.1807e-39 0)
(-4.29718e-40 2.1807e-39 0)
(2.51476e-40 2.4495e-39 0)
(3.22086e-40 -7.90234e-40 0)
(-6.47445e-41 -1.32806e-39 0)
(-1.34206e-40 -3.33311e-40 0)
(-3.47141e-41 -7.4804e-41 0)
(-8.2315e-42 -1.19186e-41 0)
(-2.68877e-42 2.56126e-44 0)
(-8.40593e-42 1.21292e-41 0)
(-3.58381e-41 7.63961e-41 0)
(-1.40867e-40 3.43605e-40 0)
(-9.11756e-41 1.39046e-39 0)
(2.2411e-40 1.04664e-39 0)
(3.30315e-40 -1.46878e-39 0)
(1.40912e-44 -2.80573e-39 0)
(-3.30182e-40 -1.46888e-39 0)
(-2.23028e-40 1.04555e-39 0)
(9.82241e-41 1.37906e-39 0)
(1.63767e-40 2.32512e-40 0)
(1.52165e-36 2.50344e-37 0)
(1.97256e-37 -1.331e-37 0)
(2.89023e-38 -1.92572e-38 0)
(3.24706e-39 -1.92163e-39 0)
(3.90916e-40 -5.56508e-40 0)
(-1.01287e-41 -3.81792e-40 0)
(-4.80707e-41 1.09682e-40 0)
(7.3916e-42 1.91375e-40 0)
(1.8178e-41 4.89849e-41 0)
(4.80914e-42 1.12207e-41 0)
(1.13416e-42 1.85453e-42 0)
(1.87426e-43 2.87942e-43 0)
(-5.12204e-48 7.42068e-44 0)
(-1.87471e-43 2.87999e-43 0)
(-1.1345e-42 1.8551e-42 0)
(-4.81119e-42 1.1226e-41 0)
(-1.81842e-41 4.90315e-41 0)
(-7.30473e-42 1.91778e-40 0)
(5.00946e-41 1.12992e-40 0)
(3.905e-41 -3.53476e-40 0)
(-6.33714e-41 -3.141e-40 0)
(-6.33714e-41 3.141e-40 0)
(3.905e-41 3.53476e-40 0)
(5.00946e-41 -1.12992e-40 0)
(-7.30479e-42 -1.91778e-40 0)
(-1.81847e-41 -4.9031e-41 0)
(-4.81525e-42 -1.12213e-41 0)
(-1.16521e-42 -1.81703e-42 0)
(-3.86304e-43 4.04442e-45 0)
(-1.19053e-42 1.84997e-42 0)
(-4.9763e-42 1.14671e-41 0)
(-1.91238e-41 5.0597e-41 0)
(-1.09473e-41 2.01108e-40 0)
(3.69433e-41 1.50477e-40 0)
(5.12596e-41 -2.12872e-40 0)
(2.4527e-45 -4.06001e-40 0)
(-5.12374e-41 -2.12891e-40 0)
(-3.67717e-41 1.5028e-40 0)
(1.20339e-41 1.99258e-40 0)
(2.26618e-41 3.39039e-41 0)
(6.11565e-34 -2.78516e-33 0)
(1.93496e-33 -1.01078e-33 0)
(5.01392e-34 -7.06418e-34 0)
(1.71388e-34 -1.46831e-34 0)
(3.24588e-35 -2.7581e-35 0)
(6.08132e-36 -4.01628e-36 0)
(9.09934e-37 -5.54762e-37 0)
(1.30309e-37 -6.82268e-38 0)
(1.65332e-38 -8.06654e-39 0)
(1.9958e-39 -9.14486e-40 0)
(2.15089e-40 -7.15311e-41 0)
(2.72612e-41 4.22802e-41 0)
(1.0927e-41 -1.2139e-41 0)
(-2.12655e-42 -3.2419e-41 0)
(-5.33551e-42 1.3089e-41 0)
(7.43563e-43 2.14122e-41 0)
(2.04649e-42 6.12556e-42 0)
(6.07746e-43 1.52123e-42 0)
(1.54015e-43 2.76619e-43 0)
(2.83703e-44 4.57938e-44 0)
(4.73452e-45 6.52886e-45 0)
(6.79349e-46 8.65695e-46 0)
(9.05792e-47 1.04414e-46 0)
(1.22193e-47 1.06233e-47 0)
(1.2303e-47 -1.07489e-47 0)
(9.1334e-47 -1.05534e-46 0)
(6.84103e-46 -8.76058e-46 0)
(4.74777e-45 -6.61789e-45 0)
(2.80991e-44 -4.6508e-44 0)
(1.47215e-43 -2.8169e-43 0)
(4.98795e-43 -1.55321e-42 0)
(6.01249e-43 -6.26971e-42 0)
(-1.67245e-41 -2.16568e-41 0)
(-2.01843e-40 -6.58562e-42 0)
(-2.09374e-39 1.35915e-40 0)
(-2.13398e-38 1.2245e-39 0)
(-2.06005e-37 1.14625e-38 0)
(-1.92489e-36 9.58948e-38 0)
(-1.66467e-35 6.07017e-37 0)
(-1.40099e-34 -7.78143e-38 0)
(-1.03664e-33 -8.65795e-35 0)
(-7.53568e-33 -1.8587e-33 0)
(-4.01875e-32 -2.51803e-32 0)
(-2.16033e-31 -2.37825e-31 0)
(1.37122e-33 -1.29082e-30 0)
(2.1623e-31 -2.37562e-31 0)
(1.32057e-32 -1.442e-32 0)
(2.35594e-32 -5.78226e-33 0)
(4.80012e-33 -4.22449e-33 0)
(1.18435e-33 -7.66355e-34 0)
(1.95311e-34 -1.36955e-34 0)
(3.27501e-35 -1.88984e-35 0)
(4.58611e-36 -2.53696e-36 0)
(6.24354e-37 -3.03099e-37 0)
(7.64688e-38 -3.50413e-38 0)
(9.00499e-39 -3.76726e-39 0)
(9.85431e-40 -3.88381e-40 0)
(1.03992e-40 -3.37826e-41 0)
(1.09857e-41 -4.61073e-42 0)
(8.01744e-43 -3.16448e-42 0)
(-3.30618e-43 1.11791e-42 0)
(6.22094e-44 1.88186e-42 0)
(1.58235e-43 5.45118e-43 0)
(4.75314e-44 1.36657e-43 0)
(1.22339e-44 2.50731e-44 0)
(2.28291e-45 4.17799e-45 0)
(3.85645e-46 5.99203e-46 0)
(5.59182e-47 7.97916e-47 0)
(7.52557e-48 9.65999e-48 0)
(1.02531e-48 9.85578e-49 0)
(1.0471e-48 -9.91005e-49 0)
(7.81029e-48 -9.67924e-48 0)
(5.93298e-47 -7.95587e-47 0)
(4.26698e-46 -5.9107e-46 0)
(2.77463e-45 -4.02536e-45 0)
(1.81002e-44 -2.27078e-44 0)
(1.16305e-43 -1.0394e-43 0)
(9.50225e-43 -1.24162e-43 0)
(8.90092e-42 3.21952e-42 0)
(9.54441e-41 5.76689e-41 0)
(9.94714e-40 6.50664e-40 0)
(9.95214e-39 6.76931e-39 0)
(9.4184e-38 6.69975e-38 0)
(8.56015e-37 5.98327e-37 0)
(7.22191e-36 4.48034e-36 0)
(5.84331e-35 1.59042e-35 0)
(4.19128e-34 -2.67378e-34 0)
(2.86327e-33 -8.26485e-33 0)
(1.4746e-32 -1.31069e-31 0)
(6.95209e-32 -1.51062e-30 0)
(2.30794e-32 -1.22077e-29 0)
(-4.18396e-32 -1.51485e-30 0)
(1.66761e-31 -1.06232e-31 0)
(2.05829e-31 -1.47453e-32 0)
(2.95258e-32 -1.40879e-33 0)
(6.86718e-33 -1.01729e-34 0)
(1.02073e-33 -5.17986e-36 0)
(1.65029e-34 -1.26596e-37 0)
(2.20706e-35 1.35533e-38 0)
(2.93294e-36 2.70187e-39 0)
(3.50043e-37 3.35192e-40 0)
(4.05325e-38 3.46888e-41 0)
(4.36457e-39 3.54518e-42 0)
(4.53514e-40 6.70206e-43 0)
(4.46569e-41 -4.97849e-44 0)
(4.21922e-42 -2.22345e-43 0)
(3.51089e-43 9.10197e-44 0)
(3.79073e-44 1.49883e-43 0)
(1.52496e-44 4.39011e-44 0)
(4.00601e-45 1.11474e-44 0)
(9.98408e-46 2.0685e-45 0)
(1.85712e-46 3.48205e-46 0)
(3.14312e-47 5.03882e-47 0)
(4.57515e-48 6.76194e-48 0)
(6.18283e-49 8.24224e-49 0)
(8.93063e-50 8.44711e-50 0)
(1.55406e-49 -8.59648e-50 0)
(1.61285e-48 -8.39701e-49 0)
(1.81515e-47 -6.93604e-48 0)
(2.11935e-46 -5.23483e-47 0)
(2.51716e-45 -3.70588e-46 0)
(3.0263e-44 -2.32563e-45 0)
(3.59521e-43 -1.41384e-44 0)
(4.20129e-42 -7.84786e-44 0)
(4.75112e-41 -5.47494e-43 0)
(5.20832e-40 -4.54103e-42 0)
(5.46335e-39 -4.82937e-41 0)
(5.52828e-38 -5.01196e-40 0)
(5.29555e-37 -4.85161e-39 0)
(4.89077e-36 -3.99947e-38 0)
(4.1941e-35 -2.15883e-37 0)
(3.4763e-34 1.42566e-36 0)
(2.55336e-33 6.89892e-35 0)
(1.81983e-32 1.39399e-33 0)
(9.75744e-32 1.97728e-32 0)
(5.11062e-31 2.1187e-31 0)
(2.12504e-31 1.59771e-30 0)
(-2.68246e-31 2.11458e-31 0)
(1.96843e-32 -1.03486e-31 0)
(2.01932e-32 -1.13433e-32 0)
(4.18886e-33 2.52068e-33 0)
(1.05626e-33 6.37729e-34 0)
(1.77575e-34 1.29585e-34 0)
(3.02593e-35 1.86022e-35 0)
(4.28724e-36 2.53615e-36 0)
(5.89068e-37 3.04506e-37 0)
(7.26563e-38 3.52494e-38 0)
(8.60509e-39 3.78719e-39 0)
(9.46584e-40 3.92502e-40 0)
(9.9961e-41 3.85395e-41 0)
(9.985e-42 3.64164e-42 0)
(9.57999e-43 3.12724e-43 0)
(8.55881e-44 3.61856e-44 0)
(8.11115e-45 1.43879e-44 0)
(1.5887e-45 3.72869e-45 0)
(3.38511e-46 9.17821e-46 0)
(7.87005e-47 1.69705e-46 0)