/*--------------------------------*- C++ -*----------------------------------*\
| =========                 |                                                 |
| \\      /  F ield         | OpenFOAM: The Open Source CFD Toolbox           |
|  \\    /   O peration     | Version:  2.4.0                                 |
|   \\  /    A nd           | Web:      www.OpenFOAM.org                      |
|    \\/     M anipulation  |                                                 |
\*---------------------------------------------------------------------------*/
FoamFile
{
    version     2.0;
    format      ascii;
    class       surfaceScalarField;
    location    "0.75";
    object      phi;
}
// * * * * * * * * * * * * * * * * * * * * * * * * * * * * * * * * * * * * * //

dimensions      [0 3 -1 0 0 0 0];

internalField   nonuniform List<scalar> 
15214
(
3.71931e-39
9.01225e-41
1.96179e-38
5.05254e-40
2.81614e-38
3.35946e-39
5.65749e-37
2.49755e-39
7.33464e-41
-6.46173e-39
-5.65207e-37
-6.45052e-39
-2.39437e-38
2.5978e-39
3.81526e-39
3.95467e-39
4.4585e-38
4.3819e-39
5.97717e-37
6.04751e-39
5.89581e-37
-3.34798e-39
-5.13682e-37
-8.95925e-39
2.39053e-38
2.49752e-39
5.70023e-37
5.85671e-39
2.87025e-38
-2.59928e-39
1.96977e-38
-3.37236e-39
3.74965e-39
-5.06439e-40
4.68451e-40
-8.90812e-41
6.57152e-41
-1.1379e-41
7.64654e-42
-1.48505e-42
9.03321e-43
-1.67452e-43
9.58571e-44
-1.85288e-44
1.00888e-44
-1.87402e-45
1.94658e-45
-1.67031e-46
1.01714e-44
1.68532e-46
9.67338e-44
1.88947e-45
9.12332e-43
1.86957e-44
7.73221e-42
1.6914e-43
6.65207e-41
1.50167e-42
4.75174e-40
1.15276e-41
3.80753e-39
9.0395e-41
2.00986e-38
5.16296e-40
3.19683e-38
3.44973e-39
5.8584e-37
3.01365e-39
3.19683e-38
-3.01365e-39
2.00986e-38
-3.44973e-39
3.80753e-39
-5.16296e-40
4.75174e-40
-9.0395e-41
6.65206e-41
-1.15278e-41
7.73161e-42
-1.50321e-42
9.08777e-43
-1.80844e-43
8.15308e-44
-9.36498e-44
-4.91579e-44
-4.54569e-43
-4.31457e-44
-1.87496e-42
6.17336e-44
-7.59067e-42
-1.25731e-42
1.20719e-39
-1.02574e-40
6.12921e-39
-7.77946e-40
3.51178e-38
-4.8856e-39
5.59869e-38
-3.53903e-39
2.84732e-41
9.3446e-39
-5.57839e-38
9.32951e-39
-3.37201e-38
-3.68035e-39
1.2489e-39
-5.79256e-39
4.0232e-38
-6.46069e-39
9.23499e-38
-8.69377e-39
6.35127e-38
4.87026e-39
-1.33145e-38
1.28836e-38
7.55413e-39
-3.539e-39
5.74061e-38
-8.42436e-39
3.53203e-38
3.68219e-39
6.16063e-39
4.90285e-39
1.2236e-39
7.8098e-40
1.74262e-40
1.26275e-40
2.53477e-41
1.5288e-41
3.1326e-42
1.84218e-42
3.80086e-43
1.95942e-43
4.17244e-44
2.04786e-44
4.48003e-45
1.9818e-45
8.83285e-46
1.70313e-46
4.51797e-45
-1.71749e-46
4.21215e-44
-1.99704e-45
3.84076e-43
-2.06488e-44
3.16979e-42
-1.97735e-43
2.56852e-41
-1.86064e-42
1.77006e-40
-1.5463e-41
1.24573e-39
-1.27917e-40
6.30878e-39
-7.94385e-40
3.63633e-38
-5.01344e-39
6.22922e-38
-4.33319e-39
3.63633e-38
4.33319e-39
6.30878e-39
5.01344e-39
1.24573e-39
7.94385e-40
1.77006e-40
1.27917e-40
2.56843e-41
1.54617e-41
3.16404e-42
1.84978e-42
3.49559e-43
1.14212e-43
-1.06673e-43
-5.21588e-43
-5.81849e-43
-3.32395e-42
-4.39427e-43
-1.40385e-41
5.89417e-43
-5.77126e-41
-9.54744e-42
2.93325e-40
-3.73036e-41
1.17244e-39
-2.65198e-40
5.16208e-39
-1.38175e-39
7.78658e-39
-9.26605e-40
8.75306e-42
2.62542e-39
-7.72965e-39
2.61951e-39
-4.81798e-39
-9.78435e-40
3.0378e-40
-1.69378e-39
6.09672e-39
-1.91934e-39
1.32512e-38
-2.40669e-39
9.30227e-39
1.37565e-39
-1.09994e-39
3.552e-39
1.52442e-39
-9.26573e-40
8.13711e-39
-2.30813e-39
5.21876e-39
9.79186e-40
1.18174e-39
1.38847e-39
2.96064e-40
2.6628e-40
4.8063e-41
4.59589e-41
7.73282e-42
5.99671e-42
1.02223e-42
7.52748e-43
1.3062e-43
8.3578e-44
1.49006e-44
8.98664e-45
1.64989e-45
8.94485e-46
3.33087e-46
7.83247e-47
1.66445e-45
-7.901e-47
1.505e-44
-9.01638e-46
1.32084e-43
-9.0649e-45
1.03546e-42
-8.43856e-44
7.84821e-42
-7.60824e-43
4.89513e-41
-6.07113e-42
3.02744e-40
-4.66262e-41
1.22181e-39
-2.71506e-40
5.46471e-39
-1.42826e-39
9.00724e-39
-1.198e-39
5.46471e-39
1.198e-39
1.22181e-39
1.42826e-39
3.02744e-40
2.71506e-40
4.89504e-41
4.66253e-41
7.84151e-42
6.06237e-42
9.91718e-43
6.88786e-43
-1.33396e-43
-4.769e-43
-1.14479e-42
-3.69004e-42
-4.6367e-42
-2.31078e-41
-3.5139e-42
-9.97022e-41
4.58128e-42
-4.17818e-40
-6.89336e-41
5.17489e-41
-1.29905e-41
1.65582e-40
-7.30255e-41
5.79543e-40
-3.5075e-40
8.30841e-40
-2.27684e-40
1.88469e-42
6.65056e-40
-8.19426e-40
6.63262e-40
-5.17974e-40
-2.4277e-40
5.3707e-41
-4.36003e-40
7.04669e-40
-4.96696e-40
1.46378e-39
-6.06509e-40
1.05768e-39
3.48269e-40
-2.25484e-41
8.92624e-40
2.28729e-40
-2.27538e-40
8.93739e-40
-5.77626e-40
5.90872e-40
2.43012e-40
1.67503e-40
3.52232e-40
5.20584e-41
7.25059e-41
9.49775e-42
1.3415e-41
1.65262e-42
1.84807e-42
2.3101e-43
2.4298e-43
3.06916e-44
2.79848e-44
3.61246e-45
3.09962e-45
4.09554e-46
3.15984e-46
8.43105e-47
2.81648e-47
4.1329e-46
-2.84189e-47
3.6502e-45
-3.18599e-46
3.10542e-44
-3.12776e-45
2.34209e-43
-2.82695e-44
1.67962e-42
-2.45757e-43
9.69726e-42
-1.87289e-42
5.34728e-41
-1.36294e-41
1.75287e-40
-7.41048e-41
6.32968e-40
-3.63743e-40
1.00586e-39
-3.01615e-40
6.32968e-40
3.01615e-40
1.75287e-40
3.63743e-40
5.3472e-41
7.41042e-41
9.69112e-42
1.36236e-41
1.6322e-42
1.81984e-42
-7.93006e-44
-1.95563e-43
-1.89938e-42
-3.46313e-42
-8.57083e-42
-2.34379e-41
-3.487e-41
-1.49732e-40
-2.67156e-41
-6.64427e-40
3.37316e-41
-2.84429e-39
-4.68869e-40
8.2237e-42
-1.81743e-41
2.052e-41
-2.11765e-41
4.95316e-41
-7.11575e-41
6.45779e-41
-4.29756e-41
3.77142e-43
1.26365e-40
-6.24491e-41
1.26136e-40
-3.93034e-41
-4.52594e-41
8.74123e-42
-8.42562e-41
6.34541e-41
-9.64688e-41
1.22638e-40
-1.14839e-40
9.49248e-41
6.62512e-41
1.56734e-41
1.68552e-40
3.07632e-41
-4.19766e-41
7.49097e-41
-1.08635e-40
5.14913e-41
4.53108e-41
2.07039e-41
6.71417e-41
8.42328e-42
1.47274e-41
1.70356e-42
2.87127e-42
3.18767e-43
4.14197e-43
4.66731e-44
5.64366e-44
6.42007e-45
6.70006e-45
7.75718e-46
7.59518e-46
8.97916e-47
7.89752e-47
1.87894e-47
7.13983e-48
9.0634e-47
-7.20593e-48
7.84115e-46
-7.96472e-47
6.49938e-45
-7.66652e-46
4.7358e-44
-6.77108e-45
3.24393e-43
-5.71156e-44
1.74363e-42
-4.20122e-43
8.69382e-42
-2.92085e-42
2.20758e-41
-1.50836e-41
5.81172e-41
-6.95854e-41
8.65488e-41
-5.70535e-41
5.81171e-41
5.70535e-41
2.20753e-41
6.9585e-41
8.68894e-42
1.50803e-41
1.70319e-42
2.889e-42
7.78928e-45
1.2391e-43
-2.07669e-42
-2.44413e-42
-1.33098e-41
-2.01694e-41
-6.03863e-41
-1.38749e-40
-2.50818e-40
-9.12967e-40
-1.94697e-40
-4.20474e-39
2.36903e-40
-1.85305e-38
-3.04287e-39
-1.73811e-43
-1.06252e-40
3.71619e-42
-4.57134e-41
3.67461e-42
-4.15905e-41
3.18005e-42
-1.37795e-41
1.483e-43
2.09988e-41
-2.4428e-42
2.20574e-41
-1.40733e-42
-7.9237e-42
1.29759e-42
-1.50192e-41
4.33099e-42
-1.72399e-41
7.00976e-42
-2.02161e-41
6.60699e-42
1.16778e-41
4.00309e-42
2.96057e-41
3.87228e-42
-7.26107e-42
4.35614e-42
-1.902e-41
3.26025e-42
7.90553e-42
2.36785e-42
1.18557e-41
1.24336e-42
2.70503e-42
2.73052e-43
5.51921e-43
5.39881e-44
8.2568e-44
8.20336e-45
1.16051e-44
1.15983e-45
1.41249e-45
1.43228e-46
1.63353e-46
1.68667e-47
1.72666e-47
3.57937e-48
1.57999e-48
1.70288e-47
-1.59493e-48
1.44825e-46
-1.7417e-47
1.1747e-45
-1.64932e-46
8.32952e-45
-1.42799e-45
5.50011e-44
-1.17509e-44
2.80062e-43
-8.38136e-44
1.28885e-42
-5.62079e-43
2.58459e-42
-2.77567e-42
4.21405e-42
-1.23223e-41
5.37193e-42
-1.00353e-41
4.21373e-42
1.00352e-41
2.58142e-42
1.23208e-41
1.25962e-42
2.75994e-42
3.45539e-44
4.07363e-43
-1.89573e-42
-1.37611e-42
-1.3313e-41
-1.25384e-41
-8.53129e-41
-1.0365e-40
-3.96936e-40
-7.35382e-40
-1.68846e-39
-5.02564e-39
-1.33028e-39
-2.43453e-38
1.54812e-39
-1.10664e-37
-1.81977e-38
-7.5769e-42
-6.55917e-40
1.13214e-41
-2.67433e-40
5.52314e-42
-1.90558e-40
2.52875e-42
-4.14412e-41
6.10278e-43
-4.58423e-42
3.75316e-43
2.30053e-42
2.17461e-43
-1.40428e-42
1.89496e-43
-2.41206e-42
1.59004e-43
-2.7544e-42
3.53579e-45
-3.18378e-42
2.78541e-43
1.84117e-42
7.14892e-43
4.65262e-42
4.91024e-43
-1.1249e-42
2.39086e-44
-2.98027e-42
7.2234e-44
1.23466e-42
2.73216e-43
1.87236e-42
1.7826e-43
4.42162e-43
4.15157e-44
9.35515e-44
8.55647e-45
1.44286e-44
1.3374e-45
2.07968e-45
1.93299e-46
2.5849e-46
2.42927e-47
3.03961e-47
2.90177e-48
3.25849e-48
6.22961e-49
3.01257e-49
2.93022e-48
-3.0416e-49
2.45704e-47
-3.28746e-48
1.95853e-46
-3.06971e-47
1.35875e-45
-2.61413e-46
8.72485e-45
-2.10676e-45
4.2654e-44
-1.4656e-44
1.8543e-43
-9.53662e-44
3.05785e-43
-4.5445e-43
2.06273e-43
-1.95096e-42
1.01466e-43
-1.57914e-42
2.04516e-43
1.57852e-42
2.88453e-43
1.94464e-42
2.35385e-44
3.87263e-43
-1.33684e-42
-5.7465e-43
-1.11584e-41
-6.42566e-42
-7.79619e-41
-5.66515e-41
-5.13156e-40
-4.83284e-40
-2.46574e-39
-3.57957e-39
-1.08367e-38
-2.58571e-38
-8.68597e-39
-1.34338e-37
9.61904e-39
-6.42143e-37
-1.04501e-37
-2.20085e-41
-3.87563e-39
9.08793e-41
-1.51606e-39
3.96337e-41
-1.07647e-39
1.82689e-41
-2.24039e-40
3.90563e-42
-4.30347e-41
8.46744e-43
-5.8107e-42
1.73439e-43
-1.0585e-42
4.21946e-44
-4.64918e-43
-1.05581e-44
-4.26706e-43
-7.24133e-44
-4.76224e-43
-1.0747e-44
2.74662e-43
1.07208e-43
6.92936e-43
6.21863e-44
-1.65715e-43
-4.02297e-44
-4.42794e-43
-1.91773e-44
1.83112e-43
3.21916e-44
2.79838e-43
2.43755e-44
6.77823e-44
5.91619e-45
1.47712e-44
1.25652e-45
2.33381e-45
2.00816e-46
3.43401e-46
2.95385e-47
4.34162e-47
3.7668e-48
5.17641e-48
4.55328e-49
5.61419e-49
9.87247e-50
5.23543e-50
4.59869e-49
-5.28667e-50
3.81076e-48
-5.66496e-49
2.99386e-47
-5.22872e-48
2.04122e-46
-4.39191e-47
1.28219e-45
-3.48005e-46
6.08652e-45
-2.37194e-45
2.54231e-44
-1.50701e-44
3.67856e-44
-6.97633e-44
-1.19434e-45
-2.92201e-43
-3.57391e-44
-2.35591e-43
-9.50526e-45
2.33584e-43
-4.61531e-44
2.71583e-43
-7.60236e-43
-1.52176e-43
-6.80308e-42
-2.23275e-42
-5.63114e-41
-2.20685e-41
-4.03682e-40
-2.00022e-40
-2.74272e-39
-1.78277e-39
-1.37097e-38
-1.40957e-38
-6.24454e-38
-1.1021e-37
-5.09914e-38
-6.36489e-37
5.30335e-38
-3.18737e-36
-5.22815e-37
2.10826e-40
-2.05577e-38
7.70097e-40
-8.10174e-39
2.86664e-40
-5.89399e-39
1.189e-40
-1.17418e-39
2.41406e-41
-2.19516e-40
4.60269e-42
-3.0732e-41
6.8888e-43
-4.16399e-42
9.80419e-44
-5.3623e-43
7.60483e-45
-1.13093e-43
-1.3051e-44
-7.19528e-44
-4.47417e-45
3.7807e-44
1.47632e-44
9.65187e-44
7.89074e-45
-2.287e-44
-8.13497e-45
-6.15772e-44
-4.44407e-45
2.54192e-44
3.90024e-45
3.91245e-44
3.22622e-45
9.68765e-45
8.05196e-46
2.16127e-45
1.74836e-46
3.48354e-46
2.84287e-47
5.2121e-47
4.24087e-48
6.68419e-48
5.47274e-49
8.06144e-49
6.68085e-50
8.83024e-50
1.46053e-50
8.29477e-51
6.74841e-50
-8.37708e-51
5.53767e-49
-8.91129e-50
4.29943e-48
-8.14436e-49
2.89074e-47
-6.76329e-48
1.78502e-46
-5.2838e-47
8.29081e-46
-3.54229e-46
3.3694e-45
-2.20674e-45
4.49635e-45
-9.98494e-45
-2.37984e-45
-4.0958e-44
-1.11359e-44
-3.32567e-44
-3.75639e-44
2.79172e-44
-3.51565e-43
-1.46454e-44
-3.43068e-42
-5.98563e-43
-3.03922e-41
-6.2855e-42
-2.58324e-40
-6.36852e-41
-1.91254e-39
-6.03241e-40
-1.3549e-38
-5.78205e-39
-7.10462e-38
-5.06585e-38
-3.42993e-37
-4.50068e-37
-2.85657e-37
-3.0098e-36
2.79635e-37
-1.67965e-35
-2.62788e-36
4.7521e-39
-1.06001e-37
6.60395e-39
-3.6194e-38
1.99532e-39
-2.54233e-38
6.98742e-40
-4.83789e-39
1.32794e-40
-8.61583e-40
2.40917e-41
-1.16482e-40
3.4576e-42
-1.51738e-41
4.70772e-43
-1.74581e-42
5.5732e-44
-2.00908e-43
4.34037e-45
-2.94817e-44
-8.86519e-47
3.80174e-45
1.95855e-45
1.42141e-44
9.83266e-46
-3.39699e-45
-1.18281e-45
-9.16269e-45
-6.69651e-46
3.77696e-45
4.70535e-46
5.84524e-45
4.08054e-46
1.47179e-45
1.0396e-46
3.34254e-46
2.29564e-47
5.47012e-47
3.78614e-48
8.2901e-48
5.71385e-49
1.07495e-48
7.44878e-50
1.30808e-49
9.16978e-51
1.44399e-50
2.01901e-51
1.36419e-51
9.26271e-51
-1.37788e-51
7.53707e-50
-1.4574e-50
5.79212e-49
-1.32173e-49
3.84841e-48
-1.0879e-48
2.34116e-47
-8.40669e-48
1.06638e-46
-5.56499e-47
4.20518e-46
-3.41544e-46
4.70684e-46
-1.51932e-45
-1.31012e-45
-6.14044e-45
-1.16696e-44
-5.11879e-45
-1.14004e-43
2.23031e-45
-1.15763e-42
-2.47161e-44
-1.13868e-41
-3.4973e-43
-1.03199e-40
-3.87919e-42
-9.03498e-40
-4.47074e-41
-6.94339e-39
-5.31199e-40
-5.14277e-38
-6.97852e-39
-2.85437e-37
-8.94573e-38
-1.45933e-36
-1.07217e-36
-1.23528e-36
-9.72727e-36
1.08648e-36
-5.76477e-35
-9.37615e-36
-2.95194e-39
-7.15064e-41
-1.61589e-38
-4.20809e-40
-2.36565e-38
-3.08386e-39
-5.17484e-37
-2.36139e-39
2.05577e-45
5.94562e-39
5.17484e-37
5.94562e-39
2.36567e-38
-2.36138e-39
1.61625e-38
-3.08379e-39
2.9643e-39
-4.20514e-40
3.42087e-40
-7.04509e-41
4.56565e-41
-8.32774e-42
4.39944e-42
-1.04035e-42
-4.39998e-42
-2.16446e-43
-4.5662e-41
-1.04045e-42
-3.42143e-40
-8.32882e-42
-2.96486e-39
-7.04623e-41
-1.61675e-38
-4.20624e-40
-2.3703e-38
-3.08483e-39
-5.17831e-37
-2.36982e-39
-3.01058e-39
5.87412e-39
5.00975e-37
5.51667e-39
-3.01058e-39
-5.51667e-39
-5.17831e-37
-5.87412e-39
-2.3703e-38
2.36982e-39
-1.61675e-38
3.08483e-39
-2.96492e-39
4.20623e-40
-3.42708e-40
7.04508e-41
-5.07208e-41
8.21854e-42
-5.117e-41
-1.02256e-44
-3.47097e-40
-8.31633e-42
-3.00562e-39
-7.13706e-41
-1.64633e-38
-4.27909e-40
-2.63202e-38
-3.14685e-39
-5.30983e-37
-2.71884e-39
-1.01577e-38
3.21928e-39
1.01572e-38
6.31056e-39
5.30979e-37
3.21918e-39
2.62742e-38
-2.71987e-39
1.62151e-38
-3.15355e-39
-4.56068e-40
-9.56371e-40
8.17451e-41
-5.07155e-39
6.48327e-40
-3.18001e-38
4.48803e-39
-5.16946e-38
3.35827e-39
1.16084e-45
-8.60697e-39
5.16946e-38
-8.60697e-39
3.18002e-38
3.35826e-39
5.07321e-39
4.488e-39
9.64311e-40
6.4903e-40
1.27285e-40
9.91594e-41
1.75556e-41
1.11131e-41
1.79458e-42
1.27789e-42
-1.79483e-42
2.51437e-43
-1.7558e-41
1.27799e-42
-1.27309e-40
1.11142e-41
-9.64546e-40
9.9172e-41
-5.07526e-39
6.49157e-40
-3.18181e-38
4.48928e-39
-5.1824e-38
3.3695e-39
-9.82126e-40
-8.50653e-39
4.64921e-38
-7.9467e-39
-9.82126e-40
7.9467e-39
-5.1824e-38
8.50653e-39
-3.18181e-38
-3.3695e-39
-5.07526e-39
-4.48928e-39
-9.6457e-40
-6.49156e-40
-1.27546e-40
-9.91594e-41
-1.96308e-41
-1.09864e-41
-1.98178e-41
1.12728e-44
-1.29336e-40
1.11006e-41
-9.80098e-40
1.00298e-40
-5.18473e-39
6.5899e-40
-3.2653e-38
4.5772e-39
-5.5915e-38
3.91809e-39
-2.75798e-38
-4.6788e-39
2.75796e-38
-9.17687e-39
5.59131e-38
-4.67871e-39
3.2634e-38
3.91868e-39
5.07615e-39
4.57238e-39
4.952e-40
-2.34402e-40
2.95277e-41
-9.75466e-40
2.21788e-40
-4.69733e-39
1.27576e-39
-7.25994e-39
8.92135e-40
1.68899e-46
-2.43098e-39
7.25994e-39
-2.43098e-39
4.69734e-39
8.92133e-40
9.75736e-40
1.27575e-39
2.35195e-40
2.22046e-40
3.53181e-41
3.61046e-41
5.3847e-42
4.36449e-42
5.84097e-43
5.22382e-43
-5.8419e-43
1.07269e-43
-5.38559e-42
5.22429e-43
-3.53268e-41
4.36501e-42
-2.35276e-40
3.61101e-41
-9.76409e-40
2.22101e-40
-4.70282e-39
1.27628e-39
-7.29593e-39
8.96551e-40
-2.40669e-40
-2.39435e-39
6.24821e-39
-2.20451e-39
-2.40669e-40
2.20451e-39
-7.29593e-39
2.39435e-39
-4.70282e-39
-8.96551e-40
-9.76409e-40
-1.27628e-39
-2.35284e-40
-2.221e-40
-3.54087e-41
-3.61046e-41
-6.06623e-42
-4.3104e-42
-6.13013e-42
4.92886e-45
-3.59911e-41
4.35901e-42
-2.40005e-40
3.65674e-41
-1.00625e-39
2.25942e-40
-4.90202e-39
1.30796e-39
-8.031e-39
1.08197e-39
-3.92629e-39
-1.34506e-39
3.92624e-39
-2.62476e-39
8.03068e-39
-1.34503e-39
4.89906e-39
1.0822e-39
9.89104e-40
1.30629e-39
1.69047e-40
-4.17158e-41
8.58481e-42
-1.38588e-40
6.04581e-41
-5.30839e-40
3.24154e-40
-7.83444e-40
2.20565e-40
3.91372e-48
-6.17388e-40
7.83444e-40
-6.17388e-40
5.30837e-40
2.20565e-40
1.38609e-40
3.24154e-40
4.16639e-41
6.05607e-41
7.01675e-42
1.05715e-41
1.15523e-42
1.34911e-42
1.31699e-43
1.69246e-43
-1.31722e-43
3.60096e-44
-1.15546e-42
1.69263e-43
-7.01886e-42
1.34929e-42
-4.1683e-41
1.05734e-41
-1.38761e-40
6.05789e-41
-5.32014e-40
3.24323e-40
-7.90614e-40
2.21932e-40
-4.28403e-41
-6.06647e-40
6.37666e-40
-5.5546e-40
-4.28403e-41
5.5546e-40
-7.90614e-40
6.06647e-40
-5.32014e-40
-2.21932e-40
-1.38762e-40
-3.24323e-40
-4.16851e-41
-6.05787e-41
-7.03816e-42
-1.05715e-41
-1.31e-42
-1.33094e-42
-1.32493e-42
1.69945e-45
-7.16944e-42
1.34721e-42
-4.26897e-41
1.07207e-41
-1.44602e-40
6.17584e-41
-5.66508e-40
3.33527e-40
-8.86382e-40
2.71752e-40
-4.279e-40
-3.44421e-40
4.27894e-40
-6.69788e-40
8.86357e-40
-3.44414e-40
5.663e-40
2.71781e-40
1.43089e-40
3.32843e-40
4.55968e-41
-6.85797e-42
1.82411e-42
-1.71733e-41
1.22915e-41
-4.59876e-41
6.18778e-41
-6.24914e-41
4.09661e-41
-8.3622e-48
-1.17779e-40
6.24913e-41
-1.17779e-40
4.59864e-41
4.09662e-41
1.71687e-41
6.18787e-41
6.79753e-42
1.232e-41
1.26494e-42
2.26762e-42
2.23722e-43
3.03055e-43
2.65559e-44
3.94091e-44
-2.65611e-44
8.63576e-45
-2.23771e-43
3.94134e-44
-1.26539e-42
3.03101e-43
-6.80154e-42
2.26809e-42
-1.71997e-41
1.23243e-41
-4.62146e-41
6.19181e-41
-6.37873e-41
4.12736e-41
-7.02572e-42
-1.15472e-40
4.40267e-41
-1.05152e-40
-7.02572e-42
1.05152e-40
-6.37873e-41
1.15472e-40
-4.62146e-41
-4.12736e-41
-1.71998e-41
-6.19181e-41
-6.802e-42
-1.23243e-41
-1.26944e-42
-2.26762e-42
-2.55138e-43
-2.98697e-43
-2.58248e-43
4.16024e-46
-1.29591e-42
3.02589e-43
-6.9952e-42
2.3022e-42
-1.82366e-41
1.25879e-41
-5.17162e-41
6.38784e-41
-7.39303e-41
5.12865e-41
-3.45475e-41
-6.62209e-41
3.45475e-41
-1.28371e-40
7.39351e-41
-6.62201e-41
5.17586e-41
5.12855e-41
1.83472e-41
6.36926e-41
9.14767e-42
-1.02633e-42
3.46214e-43
-1.96925e-42
2.24839e-42
-2.85341e-42
1.09342e-41
-3.0222e-42
7.11836e-42
-9.52388e-49
-2.08264e-41
3.02219e-42
-2.08264e-41
2.85314e-42
7.11863e-42
1.96741e-42
1.09361e-41
1.00996e-42
2.26521e-42
2.03515e-43
4.36864e-43
3.79979e-44
6.05426e-44
4.65888e-45
8.12469e-45
-4.65988e-45
1.82373e-45
-3.80071e-44
8.12563e-45
-2.03599e-43
6.05525e-44
-1.01068e-42
4.36964e-43
-1.97287e-42
2.26613e-42
-2.89195e-42
1.09443e-41
-3.23117e-42
7.18009e-42
-1.04877e-42
-2.03814e-41
8.45793e-43
-1.84998e-41
-1.04877e-42
1.84998e-41
-3.23117e-42
2.03814e-41
-2.89195e-42
-7.18009e-42
-1.97288e-42
-1.09443e-41
-1.01077e-42
-2.26612e-42
-2.04333e-43
-4.36863e-43
-4.35399e-44
-5.96218e-44
-4.40995e-44
8.94405e-47
-2.08975e-43
6.04423e-44
-1.04339e-42
4.43967e-43
-2.1376e-42
2.31852e-42
-3.69293e-42
1.13197e-41
-4.14982e-42
9.0003e-42
-1.7255e-42
-1.17719e-41
1.72567e-42
-2.27622e-41
4.15192e-42
-1.1772e-41
3.71014e-42
8.9985e-42
2.20221e-42
1.12756e-41
1.65784e-42
-1.43398e-43
9.028e-44
-2.26716e-43
2.84273e-43
-4.94233e-44
1.71535e-42
1.24283e-43
1.10578e-42
1.58947e-47
-3.29314e-42
-1.24174e-43
-3.29298e-42
5.00757e-44
1.10751e-42
2.2736e-43
1.72844e-42
1.45471e-43
3.70611e-43
3.10233e-44
7.4178e-44
6.03493e-45
1.05978e-44
7.58285e-46
1.4589e-45
-7.5846e-46
3.34194e-46
-6.03651e-45
1.45908e-45
-3.10375e-44
1.05997e-44
-1.45592e-43
7.41967e-44
-2.28252e-43
3.7078e-43
-5.62456e-44
1.7299e-42
9.22589e-44
1.11827e-42
-1.51641e-43
-3.21733e-42
-3.83453e-43
-2.91159e-42
-1.51641e-43
2.91159e-42
9.22589e-44
3.21733e-42
-5.62458e-44
-1.11827e-42
-2.28254e-43
-1.7299e-42
-1.45606e-43
-3.70778e-43
-3.11601e-44
-7.41778e-44
-6.94109e-45
-1.0429e-44
-7.03404e-45
1.66333e-47
-3.19154e-44
1.05791e-44
-1.50763e-43
7.54494e-44
-2.53108e-43
3.79915e-43
-1.698e-43
1.79332e-42
1.65404e-44
1.41325e-42
5.75643e-44
-1.87026e-42
-5.75119e-44
-3.60816e-42
-1.60342e-44
-1.87029e-42
1.73758e-43
1.4127e-42
2.68726e-43
1.78462e-42
2.67755e-43
8.77151e-44
-5.21809e-43
-6.80555e-45
-5.44917e-43
2.64046e-44
1.73247e-43
5.84875e-44
1.53842e-43
1.24959e-46
-4.93665e-43
-5.75239e-44
-4.9281e-43
-1.96443e-44
1.63679e-43
2.6813e-44
2.5847e-43
1.99482e-44
5.6854e-44
4.42842e-45
1.17294e-44
8.87483e-46
1.71661e-45
1.13691e-46
2.41309e-46
-1.13718e-46
5.61957e-47
-8.87731e-46
2.41341e-46
-4.43062e-45
1.71693e-45
-1.99668e-44
1.17326e-44
-2.6947e-44
5.68825e-44
1.87374e-44
2.58712e-43
5.29742e-44
1.65431e-43
-2.08565e-44
-4.80756e-43
-8.89128e-44
-4.34128e-43
-2.08565e-44
4.34128e-43
5.29742e-44
4.80756e-43
1.87374e-44
-1.65431e-43
-2.69473e-44
-2.58712e-43
-1.9969e-44
-5.68821e-44
-4.44939e-45
-1.17294e-44
-1.02386e-45
-1.68822e-45
-1.03802e-45
2.83146e-48
-4.56261e-45
1.71342e-45
-2.07244e-44
1.19392e-44
-3.04677e-44
5.83571e-44
3.352e-45
2.68697e-43
4.70179e-44
2.10314e-43
3.01658e-44
-2.80884e-43
-3.01549e-44
-5.40884e-43
-4.69236e-44
-2.80893e-43
-2.64317e-45
2.1019e-43
3.32897e-44
2.67149e-43
4.06015e-44
1.97636e-42
7.38138e-42
2.46427e-43
-3.82768e-42
6.62089e-44
-4.88639e-43
1.78455e-44
-2.92289e-44
8.96587e-46
-7.35471e-44
-1.01638e-44
-6.93318e-44
-4.33975e-45
2.26222e-44
3.25022e-45
3.61517e-44
2.64456e-45
8.1307e-45
6.03362e-46
1.71815e-45
1.23612e-46
2.56513e-46
1.60739e-47
3.66746e-47
-1.6078e-47
8.6593e-48
-1.23648e-46
3.66796e-47
-6.03678e-46
2.56564e-46
-2.64716e-45
1.71866e-45
-3.26853e-45
8.13524e-45
4.22146e-45
3.61907e-44
9.63002e-45
2.2913e-44
-2.7711e-45
-6.71979e-44
-1.41244e-44
-6.0561e-44
-2.7711e-45
6.0561e-44
9.63002e-45
6.71979e-44
4.22146e-45
-2.2913e-44
-3.26857e-45
-3.61907e-44
-2.64749e-45
-8.13519e-45
-6.06376e-46
-1.71816e-45
-1.42952e-46
-2.52138e-46
-1.44981e-46
4.40749e-49
-6.22381e-46
2.56017e-46
-2.75239e-45
1.74996e-45
-3.74536e-45
8.35497e-45
2.19938e-45
3.7648e-44
9.15162e-45
2.92891e-44
5.44905e-45
-3.94356e-44
-5.44715e-45
-7.58179e-44
-9.13623e-45
-3.94376e-44
-2.08736e-45
2.92662e-44
4.19181e-45
3.73995e-44
5.75024e-45
3.11326e-41
-5.65942e-41
3.77209e-42
-6.45252e-42
5.00806e-43
-6.36558e-43
5.26468e-44
-5.38514e-44
5.12447e-45
-1.52547e-44
-9.79765e-46
-1.07133e-44
-6.09584e-46
3.32521e-45
3.95305e-46
5.4009e-45
3.35039e-46
1.2357e-45
7.79775e-47
2.65939e-46
1.62434e-47
4.03128e-47
2.13839e-48
5.83922e-48
-2.13885e-48
1.39352e-48
-1.6247e-47
5.84009e-48
-7.80015e-47
4.03221e-47
-3.35138e-46
2.66033e-46
-3.94534e-46
1.23659e-45
6.33286e-46
5.40918e-45
1.3633e-45
3.39835e-45
-3.51424e-46
-1.00376e-44
-1.91629e-45
-9.03247e-45
-3.51424e-46
9.03247e-45
1.3633e-45
1.00376e-44
6.33285e-46
-3.39835e-45
-3.94539e-46
-5.40918e-45
-3.35183e-46
-1.23658e-45
-7.83654e-47
-2.65952e-46
-1.88216e-47
-3.96096e-47
-1.90943e-47
7.14897e-50
-8.04943e-47
4.02331e-47
-3.48931e-46
2.71007e-46
-4.55857e-46
1.27105e-45
3.79005e-46
5.63412e-45
1.32273e-45
4.36244e-45
7.7103e-46
-5.91113e-45
-7.70737e-46
-1.13503e-44
-1.32047e-45
-5.91152e-45
-3.63046e-46
4.35829e-45
5.19187e-46
5.59289e-45
8.67253e-46
9.86907e-38
-6.76067e-37
9.2308e-38
-2.51243e-37
2.34612e-38
-1.84936e-37
6.93749e-39
-3.09955e-38
1.20753e-39
-5.23849e-39
2.06804e-40
-6.69934e-40
2.84402e-41
-8.45257e-41
3.75816e-42
-9.38944e-42
4.39457e-43
-1.01726e-42
4.89397e-44
-1.02398e-43
4.9742e-45
-9.39616e-45
7.50684e-46
2.21664e-46
1.72504e-46
-3.40636e-46
-1.59154e-46
-7.18609e-46
-9.3539e-47
2.92927e-46
5.9569e-47
4.56074e-46
5.30339e-47
1.16815e-46
1.37047e-47
2.71628e-47
3.0622e-48
4.52871e-48
5.10207e-49
6.98754e-49
7.76332e-50
9.19732e-50
1.01937e-50
1.13428e-50
1.26222e-51
1.26661e-51
2.79018e-52
1.20765e-52
1.27093e-51
-1.21932e-52
1.02534e-50
-1.27762e-51
7.7808e-50
-1.14489e-50
5.06074e-49
-9.28903e-50
2.95153e-48
-7.0573e-49
1.17917e-47
-4.56629e-48
2.56025e-47
-2.71884e-47
-2.98486e-46
-1.13057e-46
-4.44812e-45
-3.82638e-46
-5.01497e-44
7.86712e-46
-5.51044e-43
1.4136e-44
-5.73032e-42
1.5418e-43
-5.78429e-41
1.63651e-42
-5.39297e-40
1.5684e-41
-4.91411e-39
1.26767e-40
-3.93928e-38
4.68296e-40
-3.12195e-37
-9.42741e-39
-1.85351e-36
-3.13667e-37
-1.10227e-35
-5.41911e-36
-9.39239e-36
-6.7666e-35
9.5162e-36
-3.76222e-35
-6.78357e-35
1.07074e-35
1.5923e-36
-9.26707e-37
1.19821e-36
-7.88659e-37
2.2923e-37
-2.09598e-37
5.01391e-38
-2.96007e-38
7.61326e-39
-4.5831e-39
1.17145e-39
-5.66222e-40
1.51102e-40
-7.04294e-41
1.90098e-41
-7.76506e-42
2.14909e-42
-8.37982e-43
2.34351e-43
-8.35984e-44
2.37213e-44
-8.04028e-45
2.3312e-45
-6.45664e-46
2.22109e-46
-8.60347e-47
7.02645e-48
-6.30833e-47
-5.28474e-48
2.32685e-47
4.34883e-48
3.69854e-47
3.81546e-48
9.58514e-48
9.97716e-49
2.24809e-48
2.26064e-49
3.77984e-49
3.81253e-50
5.86632e-50
5.86647e-51
7.76406e-51
7.77834e-52
9.61106e-52
9.71647e-53
1.07687e-52
2.17956e-53
1.02909e-53
1.00262e-52
-1.03448e-53
8.18171e-52
-1.07957e-52
6.39097e-51
-9.59972e-52
4.49048e-50
-7.69178e-51
3.13338e-49
-5.70936e-50
2.10088e-48
-3.51013e-49
1.75197e-47
-1.84148e-48
1.69254e-46
-3.91341e-48
1.92324e-45
3.72303e-47
2.1595e-44
8.9829e-46
2.33482e-43
1.10019e-44
2.38491e-42
1.2312e-43
2.34501e-41
1.3188e-42
2.13824e-40
1.28046e-41
1.87753e-39
1.07183e-40
1.46392e-38
4.90717e-40
1.09554e-37
-5.43379e-39
6.30584e-37
-2.18751e-37
3.35215e-36
-3.94859e-36
3.8001e-36
-5.11805e-35
-6.76899e-37
-2.15546e-33
-5.13681e-35
-1.95236e-36
3.48811e-35
-1.75422e-35
2.02604e-36
-1.01104e-36
1.55473e-36
5.40978e-38
3.21798e-37
1.94431e-38
4.44122e-38
4.10688e-39
6.60511e-39
5.54101e-40
8.15372e-40
7.1211e-41
1.00266e-40
7.92404e-42
1.1053e-41
8.56535e-43
1.18606e-42
8.53308e-44
1.18114e-43
8.24213e-45
1.13793e-44
7.56991e-46
1.03661e-45
6.45941e-47
9.03049e-47
1.3275e-48
7.15925e-48
2.1963e-48
9.31493e-49
2.76658e-48
3.28082e-49
7.18282e-49
7.74999e-50
1.70047e-49
1.71182e-50
2.88739e-50
2.87993e-51
4.52169e-51
4.4381e-52
6.03297e-52
5.90414e-53
7.51955e-53
7.44606e-54
8.4765e-54
2.43092e-54
8.09987e-55
1.92725e-53
-8.79233e-55
2.34001e-52
-9.44883e-54
2.95481e-51
-8.95289e-53
3.78721e-50
-8.10503e-52
4.91082e-49
-7.45838e-51
6.28745e-48
-6.94343e-50
7.92255e-47
-7.16637e-49
9.65754e-46
-7.85295e-48
1.14232e-44
-9.32652e-47
1.29195e-43
-1.10629e-45
1.41157e-42
-1.30332e-44
1.45812e-41
-1.46035e-43
1.45547e-40
-1.55695e-42
1.34724e-39
-1.48486e-41
1.20971e-38
-1.16805e-40
9.63859e-38
-3.20348e-40
7.49464e-37
1.20128e-38
4.4726e-36
3.59134e-37
2.59832e-35
6.12867e-36
2.31962e-35
7.68717e-35
1.72247e-35
2.42901e-33
7.70175e-35
-2.15325e-35
1.73107e-36
-6.92956e-37
1.02573e-36
-5.04184e-37
2.00709e-37
1.147e-37
4.48644e-38
2.59881e-38
6.94498e-39
4.9384e-39
1.08513e-39
6.53763e-40
1.41556e-40
8.36145e-41
1.79661e-41
9.32916e-42
2.04489e-42
1.01165e-42
2.24225e-43
1.01183e-43
2.28024e-44
9.80099e-45
2.23139e-45
8.95752e-46
2.06255e-46
7.90003e-47
1.83074e-47
6.36075e-48
1.52692e-48
6.72985e-49
1.4953e-49
2.44168e-49
2.9472e-50
5.64678e-50
5.93041e-51
1.29452e-50
1.24337e-51
2.18942e-51
2.0699e-52
3.42973e-52
3.18598e-53
4.58838e-53
4.24955e-54
5.73219e-54
5.37973e-55
6.47598e-55
1.80051e-55
5.90623e-56
1.44171e-54
-1.14171e-55
1.74347e-53
-1.45105e-54
2.18135e-52
-1.78834e-53
2.76105e-51
-2.24877e-52
3.5198e-50
-2.91172e-51
4.4242e-49
-3.79739e-50
5.45063e-48
-4.97556e-49
6.49495e-47
-6.40196e-48
7.46621e-46
-8.08337e-47
8.21126e-45
-9.84524e-46
8.63843e-44
-1.16125e-44
8.60987e-43
-1.29877e-43
8.1442e-42
-1.37676e-42
7.18578e-41
-1.29073e-41
5.92897e-40
-9.51435e-41
4.41375e-39
-7.33971e-41
2.93221e-38
1.50732e-38
1.58706e-37
3.95028e-37
5.90641e-37
6.49584e-36
1.4397e-36
7.90374e-35
1.68575e-36
5.74348e-35
7.92175e-35
7.84146e-37
1.83158e-37
-5.35254e-37
-1.14567e-38
-7.84921e-38
5.76955e-39
1.26059e-38
3.62437e-39
3.81455e-39
7.82137e-40
7.91614e-40
1.51483e-40
1.125e-40
2.22807e-41
1.49885e-41
3.08217e-42
1.73662e-42
3.71828e-43
1.93275e-43
4.26233e-44
1.98006e-44
4.48048e-45
1.95297e-45
4.50122e-46
1.81425e-46
4.24722e-47
1.62363e-47
3.84314e-48
1.36535e-48
3.29318e-49
1.23274e-49
2.90132e-50
2.30321e-50
3.52198e-51
4.41736e-51
5.24643e-52
9.46765e-52
9.46814e-53
1.57845e-52
1.50134e-53
2.46495e-53
2.26581e-54
3.30367e-54
2.99088e-55
4.13798e-55
1.78101e-56
4.7123e-56
-3.01707e-55
8.08503e-57
-4.6899e-54
5.23983e-56
-6.98316e-53
8.40129e-55
-1.01104e-51
1.30675e-53
-1.41921e-50
1.95995e-52
-1.93576e-49
2.84417e-51
-2.55197e-48
3.98935e-50
-3.26481e-47
5.42556e-49
-4.01739e-46
7.12104e-48
-4.7911e-45
9.06266e-47
-5.45533e-44
1.10812e-45
-6.01786e-43
1.3134e-44
-6.26371e-42
1.48573e-43
-6.32971e-41
1.63488e-42
-5.90811e-40
1.71074e-41
-5.39233e-39
1.78321e-40
-4.32917e-38
1.80341e-39
-3.43908e-37
1.9302e-38
-2.04552e-36
2.01048e-37
-1.22069e-35
2.09664e-36
-1.0403e-35
1.70585e-35
1.06063e-35
9.88273e-35
1.70773e-35
1.21447e-35
1.52749e-38
-9.8611e-38
-8.06686e-39
-1.49413e-38
-8.56342e-40
7.28679e-40
1.62295e-40
4.33533e-40
6.27484e-41
1.09763e-40
1.51375e-41
1.72101e-41
2.47463e-42
2.47275e-42
3.65673e-43
3.02056e-43
4.61851e-44
3.50453e-44
5.47122e-45
3.70487e-45
5.90292e-46
3.74689e-46
6.05044e-47
3.55006e-47
5.80586e-48
3.23018e-48
5.32868e-49
2.78028e-49
4.63564e-50
2.39147e-50
3.99792e-51
2.81787e-51
4.00572e-52
3.99962e-52
4.7766e-53
7.25475e-53
7.254e-54
1.14681e-53
1.06977e-54
1.75173e-54
1.56233e-55
2.33137e-55
2.08755e-56
2.91464e-56
9.31857e-57
3.72538e-57
1.05622e-55
7.27171e-57
1.59202e-54
1.10783e-55
2.34072e-53
1.7276e-54
3.34911e-52
2.62735e-53
4.64691e-51
3.88602e-52
6.25951e-50
5.59571e-51
8.14357e-49
7.81492e-50
1.02596e-47
1.06085e-48
1.24157e-46
1.39144e-47
1.45112e-45
1.77105e-46
1.61624e-44
2.16665e-45
1.73427e-43
2.56975e-44
1.75122e-42
2.90916e-43
1.70069e-41
3.20198e-42
1.51974e-40
3.34705e-41
1.3056e-39
3.47204e-40
9.8191e-39
3.46804e-39
7.06864e-38
3.63155e-38
3.80203e-37
3.66515e-37
1.86944e-36
3.72289e-36
1.55468e-36
2.94679e-35
-1.54314e-36
1.70305e-34
2.94292e-35
-1.84304e-36
1.70879e-39
-1.11565e-38
-1.66164e-39
-1.9138e-39
-2.54859e-40
-2.47928e-41
-1.30409e-41
3.43067e-41
3.17212e-42
1.10134e-41
1.29856e-42
1.90439e-42
2.49186e-43
2.91773e-43
4.0355e-44
3.73171e-44
5.39364e-45
4.47821e-45
6.65544e-46
4.86286e-46
7.39903e-47
5.02104e-47
7.76301e-48
4.84032e-48
7.58774e-49
4.46664e-49
7.07069e-50
3.90169e-50
6.23615e-51
3.33419e-51
5.35571e-52
3.28087e-52
4.85091e-53
3.75216e-53
4.86682e-54
5.63511e-54
6.03926e-55
8.22456e-55
7.92467e-56
1.20995e-55
1.1047e-56
1.5879e-56
4.61767e-57
1.97552e-57
5.19086e-56
2.93388e-58
8.06257e-55
1.17614e-57
1.22523e-53
1.84874e-56
1.81157e-52
2.89132e-55
2.60776e-51
4.41183e-54
3.64189e-50
6.54983e-53
4.9424e-49
9.47264e-52
6.483e-48
1.3292e-50
8.24729e-47
1.81435e-49
1.00889e-45
2.39452e-48
1.19477e-44
3.07311e-47
1.35044e-43
3.80637e-46
1.47608e-42
4.63048e-45
1.52184e-41
5.56473e-44
1.51877e-40
7.08262e-43
1.39974e-39
1.01115e-41
1.25489e-38
1.73512e-40
9.90144e-38
3.28214e-39
7.65277e-37
6.19629e-38
4.44315e-36
1.04505e-36
2.5191e-35
1.48014e-35
2.14286e-35
1.62467e-34
-2.1411e-35
3.38428e-34
1.62167e-34
-2.48669e-35
1.68802e-40
-1.46969e-39
-1.92327e-40
-2.60639e-40
-3.3595e-41
-1.93334e-41
-3.39956e-42
1.36756e-42
5.04654e-45
9.34594e-43
8.98061e-44
1.88951e-43
2.10679e-44
3.16799e-44
3.74338e-45
4.28299e-45
5.27995e-46
5.35241e-46
6.75938e-47
5.98771e-47
7.72177e-48
6.32765e-48
8.27144e-49
6.21261e-49
8.22107e-50
5.81878e-50
7.76538e-51
5.15118e-51
6.93087e-52