/*--------------------------------*- C++ -*----------------------------------*\
| =========                 |                                                 |
| \\      /  F ield         | OpenFOAM: The Open Source CFD Toolbox           |
|  \\    /   O peration     | Version:  2.4.0                                 |
|   \\  /    A nd           | Web:      www.OpenFOAM.org                      |
|    \\/     M anipulation  |                                                 |
\*---------------------------------------------------------------------------*/
FoamFile
{
    version     2.0;
    format      ascii;
    class       volVectorField;
    location    "0.75";
    object      U;
}
// * * * * * * * * * * * * * * * * * * * * * * * * * * * * * * * * * * * * * //

dimensions      [0 1 -1 0 0 0 0];

internalField   nonuniform List<vector> 
7700
(
(1.1196e-35 3.54945e-36 0)
(9.4951e-35 2.32607e-35 0)
(4.64932e-34 1.54448e-34 0)
(4.30088e-33 1.14414e-34 0)
(3.92108e-33 -2.96481e-34 0)
(-3.91899e-33 -2.9601e-34 0)
(-4.28749e-33 1.18777e-34 0)
(-3.57952e-34 1.81664e-34 0)
(4.66838e-34 2.01522e-34 0)
(4.76769e-33 2.77168e-34 0)
(8.32871e-33 -1.53967e-34 0)
(5.73409e-34 -4.10895e-34 0)
(-3.34728e-33 1.14413e-34 0)
(4.02952e-33 2.68852e-34 0)
(4.31442e-33 -1.18837e-34 0)
(4.66838e-34 -1.54989e-34 0)
(9.53242e-35 -2.33332e-35 0)
(1.16888e-35 -3.89331e-36 0)
(1.68055e-36 -4.78522e-37 0)
(1.94923e-37 -5.9795e-38 0)
(2.33048e-38 -6.52347e-39 0)
(2.47547e-39 -7.01315e-40 0)
(2.60242e-40 -6.93331e-41 0)
(2.76879e-41 -6.07195e-42 0)
(2.78664e-41 6.12485e-42 0)
(2.62418e-40 6.98856e-41 0)
(2.49831e-39 7.07383e-40 0)
(2.35391e-38 6.58607e-39 0)
(1.97134e-37 6.04257e-38 0)
(1.70133e-36 4.84331e-37 0)
(1.18599e-35 3.94644e-36 0)
(9.68048e-35 2.37505e-35 0)
(4.76799e-34 1.58391e-34 0)
(4.39766e-33 1.38157e-34 0)
(4.39766e-33 -1.38157e-34 0)
(4.76799e-34 -1.58391e-34 0)
(9.68048e-35 -2.37505e-35 0)
(1.18599e-35 -3.94644e-36 0)
(1.70133e-36 -4.84331e-37 0)
(1.97131e-37 -6.04297e-38 0)
(2.35244e-38 -6.61557e-39 0)
(2.41157e-39 -8.92728e-40 0)
(-8.47327e-41 -1.16989e-39 0)
(-1.31821e-39 -4.44812e-39 0)
(8.68519e-41 -1.77746e-38 0)
(1.67499e-39 -2.94102e-39 0)
(4.02053e-36 -1.6046e-36 0)
(3.04321e-35 -1.23573e-35 0)
(1.44492e-34 -8.19508e-35 0)
(8.57749e-34 -6.05167e-35 0)
(7.40086e-34 1.57037e-34 0)
(-7.39273e-34 1.56807e-34 0)
(-8.52767e-34 -6.2717e-35 0)
(-1.09587e-34 -9.63218e-35 0)
(1.4523e-34 -1.0696e-34 0)
(1.00297e-33 -1.46662e-34 0)
(1.63265e-33 8.17172e-35 0)
(1.79969e-34 2.17554e-34 0)
(-5.59958e-34 -6.05163e-35 0)
(7.75548e-34 -1.42464e-34 0)
(8.62791e-34 6.27447e-35 0)
(1.4523e-34 8.22135e-35 0)
(3.05913e-35 1.24042e-35 0)
(4.32956e-36 1.97093e-36 0)
(6.43778e-37 2.32963e-37 0)
(7.96306e-38 2.77475e-38 0)
(9.77193e-39 2.90986e-39 0)
(1.0755e-39 3.01462e-40 0)
(1.15295e-40 2.88916e-41 0)
(1.25626e-41 2.46741e-42 0)
(1.26458e-41 -2.48792e-42 0)
(1.16294e-40 -2.91108e-41 0)
(1.08583e-39 -3.03928e-40 0)
(9.87547e-39 -2.93602e-39 0)
(8.05886e-38 -2.80196e-38 0)
(6.52452e-37 -2.35565e-37 0)
(4.39919e-36 -1.99571e-36 0)
(3.11533e-35 -1.26088e-35 0)
(1.48896e-34 -8.39456e-35 0)
(8.88892e-34 -7.31223e-35 0)
(8.88892e-34 7.31223e-35 0)
(1.48896e-34 8.39456e-35 0)
(3.11533e-35 1.26088e-35 0)
(4.39919e-36 1.99571e-36 0)
(6.52449e-37 2.35562e-37 0)
(8.05662e-38 2.79903e-38 0)
(9.73359e-39 2.71296e-39 0)
(2.42629e-40 -1.12824e-39 0)
(-3.28701e-39 -8.63973e-39 0)
(-1.33186e-38 -3.60136e-38 0)
(7.7764e-40 -1.46032e-37 0)
(1.6044e-38 -2.41918e-38 0)
(1.13981e-36 -6.08946e-37 0)
(7.23151e-36 -4.43079e-36 0)
(2.62294e-35 -2.34807e-35 0)
(1.21093e-34 -1.58558e-35 0)
(1.01131e-34 4.46196e-35 0)
(-1.00881e-34 4.4524e-35 0)
(-1.19719e-34 -1.67051e-35 0)
(-1.77839e-35 -2.86819e-35 0)
(2.64536e-35 -3.2462e-35 0)
(1.47543e-34 -4.09496e-35 0)
(2.30638e-34 2.33831e-35 0)
(3.48439e-35 6.04751e-35 0)
(-6.62356e-35 -1.58555e-35 0)
(1.09742e-34 -3.93343e-35 0)
(1.22487e-34 1.67171e-35 0)
(2.64536e-35 2.35902e-35 0)
(7.27266e-36 4.44936e-36 0)
(1.17683e-36 7.5409e-37 0)
(1.94861e-37 9.6952e-38 0)
(2.58289e-38 1.20067e-38 0)
(3.3449e-39 1.31858e-39 0)
(3.82905e-40 1.40467e-40 0)
(4.23501e-41 1.38756e-41 0)
(4.73687e-42 1.20796e-42 0)
(4.76926e-42 -1.21842e-42 0)
(4.27332e-41 -1.39853e-41 0)
(3.86786e-40 -1.41674e-40 0)
(3.38282e-39 -1.33111e-39 0)
(2.61686e-38 -1.21331e-38 0)
(1.97815e-37 -9.81275e-38 0)
(1.19923e-36 -7.64751e-37 0)
(7.44092e-36 -4.53403e-36 0)
(2.74288e-35 -2.42447e-35 0)
(1.28531e-34 -2.03882e-35 0)
(1.28531e-34 2.03882e-35 0)
(2.74288e-35 2.42447e-35 0)
(7.44092e-36 4.53403e-36 0)
(1.19923e-36 7.64748e-37 0)
(1.97793e-37 9.81023e-38 0)
(2.59998e-38 1.1928e-38 0)
(2.30331e-39 -2.48269e-40 0)
(-6.11036e-39 -1.01277e-38 0)
(-2.65614e-38 -6.30912e-38 0)
(-1.05767e-37 -2.66937e-37 0)
(5.48256e-39 -1.09941e-36 0)
(1.25265e-37 -1.81842e-37 0)
(2.28121e-37 -1.96068e-37 0)
(1.24876e-36 -1.29219e-36 0)
(3.47684e-36 -6.33752e-36 0)
(1.3063e-35 -4.14041e-36 0)
(1.06487e-35 1.2037e-35 0)
(-1.0595e-35 1.20051e-35 0)
(-1.2791e-35 -4.40959e-36 0)
(-1.99167e-36 -7.86995e-36 0)
(3.52444e-36 -8.95739e-36 0)
(1.65864e-35 -1.09868e-35 0)
(2.51889e-35 6.30342e-36 0)
(4.99679e-36 1.61771e-35 0)
(-5.64031e-36 -4.13998e-36 0)
(1.21681e-35 -1.04754e-35 0)
(1.33387e-35 4.41382e-36 0)
(3.52444e-36 6.37299e-36 0)
(1.25601e-36 1.29697e-36 0)
(2.29705e-37 2.37704e-37 0)
(4.13553e-38 3.24572e-38 0)
(5.8096e-39 4.23759e-39 0)
(7.83312e-40 4.8504e-40 0)
(9.2608e-41 5.34653e-41 0)
(1.04896e-41 5.42741e-42 0)
(1.19888e-42 4.82289e-43 0)
(1.20729e-42 -4.86616e-43 0)
(1.05878e-41 -5.47205e-42 0)
(9.3587e-41 -5.39472e-41 0)
(7.92681e-40 -4.89931e-40 0)
(5.89151e-39 -4.28553e-39 0)
(4.20438e-38 -3.28877e-38 0)
(2.3471e-37 -2.41445e-37 0)
(1.29137e-36 -1.32509e-36 0)
(3.71122e-36 -6.57726e-36 0)
(1.43533e-35 -5.46458e-36 0)
(1.43533e-35 5.46458e-36 0)
(3.71122e-36 6.57726e-36 0)
(1.29137e-36 1.32508e-36 0)
(2.34691e-37 2.41427e-37 0)
(4.18879e-38 3.27238e-38 0)
(4.694e-39 2.936e-39 0)
(-6.9572e-39 -1.00432e-38 0)
(-4.725e-38 -6.95034e-38 0)
(-1.97356e-37 -4.35576e-37 0)
(-7.97813e-37 -1.88464e-36 0)
(3.5365e-38 -7.91713e-36 0)
(9.27315e-37 -1.30575e-36 0)
(3.26892e-38 -8.42689e-38 0)
(2.0201e-37 -2.83705e-37 0)
(3.83618e-37 -1.23168e-36 0)
(1.02999e-36 -7.7302e-37 0)
(8.13031e-37 2.31489e-36 0)
(-8.02268e-37 2.30807e-36 0)
(-9.79995e-37 -8.29394e-37 0)
(-1.41702e-37 -1.539e-36 0)
(3.91172e-37 -1.76132e-36 0)
(1.41977e-36 -2.10168e-36 0)
(2.08023e-36 1.21223e-36 0)
(6.28864e-37 3.08576e-36 0)
(-1.81556e-37 -7.70298e-37 0)
(1.05952e-36 -1.98983e-36 0)
(1.07836e-36 8.30384e-37 0)
(3.91172e-37 1.22818e-36 0)
(1.99706e-37 2.67705e-37 0)
(4.06898e-38 5.17927e-38 0)
(7.92879e-39 7.42416e-39 0)
(1.16864e-39 1.00592e-39 0)
(1.63382e-40 1.18873e-40 0)
(1.98431e-41 1.34247e-41 0)
(2.29544e-42 1.39154e-42 0)
(2.67162e-43 1.25509e-43 0)
(2.69077e-43 -1.26666e-43 0)
(2.31757e-42 -1.40332e-42 0)
(2.00606e-41 -1.35501e-41 0)
(1.65428e-40 -1.20125e-40 0)
(1.18614e-39 -1.01792e-39 0)
(8.07185e-39 -7.52933e-39 0)
(4.16904e-38 -5.2677e-38 0)
(2.06426e-37 -2.74097e-37 0)
(4.23604e-37 -1.27231e-36 0)
(1.23503e-36 -1.04428e-36 0)
(1.23503e-36 1.04428e-36 0)
(4.23603e-37 1.27231e-36 0)
(2.06412e-37 2.74086e-37 0)
(4.15651e-38 5.25703e-38 0)
(7.04293e-39 6.54847e-39 0)
(-6.82063e-39 -7.15625e-39 0)
(-5.24468e-38 -6.46913e-38 0)
(-3.27408e-37 -4.36288e-37 0)
(-1.39598e-36 -2.79564e-36 0)
(-5.76223e-36 -1.24537e-35 0)
(2.05702e-37 -5.34628e-35 0)
(6.55537e-36 -8.81247e-36 0)
(-6.1602e-38 -3.07933e-37 0)
(5.66415e-38 -1.73284e-37 0)
(4.94165e-38 -3.03899e-37 0)
(5.54547e-38 -1.54394e-37 0)
(3.53021e-38 4.12083e-37 0)
(-3.10697e-38 4.13939e-37 0)
(-3.86464e-38 -1.47304e-37 0)
(-1.51801e-39 -2.79248e-37 0)
(3.85505e-38 -3.2048e-37 0)
(8.50535e-38 -3.76551e-37 0)
(1.15001e-37 2.17474e-37 0)
(7.35584e-38 5.51603e-37 0)
(4.06874e-38 -1.35559e-37 0)
(6.98253e-38 -3.54521e-37 0)
(5.44965e-38 1.47425e-37 0)
(3.85491e-38 2.20736e-37 0)
(2.90281e-38 5.01117e-38 0)
(6.45662e-39 1.01695e-38 0)
(1.33611e-39 1.51423e-39 0)
(2.04675e-40 2.11986e-40 0)
(2.94439e-41 2.57142e-41 0)
(3.65716e-42 2.96575e-42 0)
(4.30476e-43 3.1275e-43 0)
(5.08908e-44 2.85689e-44 0)
(5.12626e-44 -2.88383e-44 0)
(4.34731e-43 -3.15465e-43 0)
(3.6985e-42 -2.9943e-42 0)
(2.98268e-41 -2.59951e-41 0)
(2.07893e-40 -2.14633e-40 0)
(1.36181e-39 -1.53691e-39 0)
(6.63099e-39 -1.03551e-38 0)
(3.01522e-38 -5.1408e-38 0)
(4.36105e-38 -2.2934e-37 0)
(7.66562e-38 -1.86941e-37 0)
(7.66555e-38 1.86941e-37 0)
(4.3602e-38 2.29334e-37 0)
(3.00702e-38 5.13483e-38 0)
(5.87854e-39 9.77447e-39 0)
(-4.89239e-39 -3.8745e-39 0)
(-4.92106e-38 -4.55882e-38 0)
(-3.30735e-37 -3.70564e-37 0)
(-2.10405e-36 -2.55791e-36 0)
(-9.22429e-36 -1.69062e-35 0)
(-3.89633e-35 -7.82847e-35 0)
(9.97853e-37 -3.46427e-34 0)
(4.31846e-35 -5.68528e-35 0)
(-4.42691e-37 -1.985e-36 0)
(2.26451e-37 -8.13212e-37 0)
(9.66546e-38 -5.93626e-37 0)
(6.09727e-38 -1.42968e-37 0)
(1.11964e-38 4.10716e-38 0)
(6.22063e-39 6.20603e-38 0)
(4.49069e-39 -2.36897e-38 0)
(1.71554e-39 -4.48677e-38 0)
(3.69258e-39 -5.15578e-38 0)
(8.45314e-40 -5.97135e-38 0)
(-7.44404e-40 3.45333e-38 0)
(8.6938e-39 8.72881e-38 0)
(1.17088e-38 -2.1135e-38 0)
(2.30472e-39 -5.59311e-38 0)
(-1.62238e-39 2.31765e-38 0)
(3.6839e-39 3.51111e-38 0)
(4.11353e-39 8.26307e-39 0)
(9.73909e-40 1.74103e-39 0)
(2.10925e-40 2.67592e-40 0)
(3.32712e-41 3.8453e-41 0)
(4.89731e-42 4.76731e-42 0)
(6.19343e-43 5.59419e-43 0)
(7.39582e-44 5.98637e-44 0)
(8.85662e-45 5.52722e-45 0)
(8.92234e-45 -5.58036e-45 0)
(7.47044e-44 -6.03945e-44 0)
(6.26522e-43 -5.64942e-43 0)
(4.96301e-42 -4.821e-42 0)
(3.3815e-41 -3.89513e-41 0)
(2.15187e-40 -2.71788e-40 0)
(1.00213e-39 -1.77459e-39 0)
(4.28993e-39 -8.49109e-39 0)
(4.437e-39 -3.6575e-38 0)
(1.4499e-39 -2.96215e-38 0)
(1.44587e-39 2.96189e-38 0)
(4.3909e-39 3.65484e-38 0)
(3.84137e-39 8.21119e-39 0)
(-3.16959e-39 -9.83562e-40 0)
(-3.49829e-38 -2.5822e-38 0)
(-2.83472e-37 -2.2499e-37 0)
(-1.94152e-36 -1.8662e-36 0)
(-1.27037e-35 -1.33117e-35 0)
(-5.76672e-35 -9.15472e-35 0)
(-2.51605e-34 -4.47087e-34 0)
(3.71226e-36 -2.0417e-33 0)
(2.7081e-34 -3.35855e-34 0)
(-2.52056e-36 -1.21697e-35 0)
(1.89245e-36 -4.958e-36 0)
(7.01198e-37 -3.51861e-36 0)
(4.29926e-37 -7.51334e-37 0)
(9.14579e-38 -1.39999e-37 0)
(2.00065e-38 -1.24148e-38 0)
(4.15913e-39 -6.61462e-39 0)
(7.90728e-40 -7.1846e-39 0)
(4.13481e-40 -7.88216e-39 0)
(-7.14802e-40 -8.9926e-39 0)
(-1.35183e-39 5.19925e-39 0)
(1.04512e-39 1.31156e-38 0)
(2.01455e-39 -3.14044e-39 0)
(-2.39788e-40 -8.38313e-39 0)
(-9.08344e-40 3.46752e-39 0)
(3.61034e-40 5.29441e-39 0)
(5.57695e-40 1.27879e-39 0)
(1.37968e-40 2.77815e-40 0)
(3.08762e-41 4.37768e-41 0)
(4.98408e-42 6.4267e-42 0)
(7.47102e-43 8.10925e-43 0)
(9.5911e-44 9.6529e-44 0)
(1.15913e-44 1.04546e-44 0)
(1.40349e-45 9.7391e-46 0)
(1.41405e-45 -9.83424e-46 0)
(1.17104e-44 -1.05489e-44 0)
(9.70465e-44 -9.7502e-44 0)
(7.57384e-43 -8.20292e-43 0)
(5.06814e-42 -6.51256e-42 0)
(3.15247e-41 -4.4489e-41 0)
(1.42181e-40 -2.83411e-40 0)
(5.83381e-40 -1.31595e-39 0)
(4.6646e-40 -5.52689e-39 0)
(-5.00546e-40 -4.45643e-39 0)
(-5.19427e-40 4.44565e-39 0)
(2.48152e-40 5.41709e-39 0)
(-1.56533e-39 1.45952e-40 0)
(-2.01314e-38 -1.14174e-38 0)
(-1.74025e-37 -1.12844e-37 0)
(-1.43307e-36 -9.97552e-37 0)
(-1.00878e-35 -8.5631e-36 0)
(-6.81879e-35 -6.39357e-35 0)
(-3.23079e-34 -4.66451e-34 0)
(-1.45908e-33 -2.45193e-33 0)
(3.81145e-36 -1.18158e-32 0)
(1.50973e-33 -1.91927e-33 0)
(-1.05986e-35 -7.14664e-35 0)
(1.66155e-35 -2.77587e-35 0)
(5.36268e-36 -1.97117e-35 0)
(2.81853e-36 -4.08344e-36 0)
(5.74796e-37 -7.8869e-37 0)
(1.14163e-37 -1.1298e-37 0)
(1.71953e-38 -1.62279e-38 0)
(2.46497e-39 -2.84834e-39 0)
(3.33086e-40 -1.32616e-39 0)
(-1.16048e-40 -1.28433e-39 0)
(-2.56419e-40 7.27962e-40 0)
(1.28729e-40 1.83803e-39 0)
(2.92603e-40 -4.35689e-40 0)
(-6.74058e-41 -1.17237e-39 0)
(-1.64762e-40 4.84042e-40 0)
(3.79304e-41 7.44505e-40 0)
(7.33803e-41 1.83956e-40 0)
(1.86943e-41 4.09474e-41 0)
(4.28549e-42 6.58693e-42 0)
(7.04227e-43 9.83907e-43 0)
(1.07112e-43 1.25998e-43 0)
(1.39198e-44 1.51781e-44 0)
(1.69905e-45 1.66086e-45 0)
(2.07624e-46 1.55897e-46 0)
(2.09203e-46 -1.57442e-46 0)
(1.71675e-45 -1.67608e-45 0)
(1.40874e-44 -1.53339e-44 0)
(1.08616e-43 -1.27484e-43 0)
(7.16384e-43 -9.97395e-43 0)
(4.37796e-42 -6.69749e-42 0)
(1.92836e-41 -4.18032e-41 0)
(7.68772e-41 -1.89545e-40 0)
(5.14462e-41 -7.78823e-40 0)
(-1.19365e-40 -6.27626e-40 0)
(-1.98448e-40 5.95105e-40 0)
(-8.73605e-40 4.43678e-40 0)
(-9.15986e-39 -3.42992e-39 0)
(-8.87499e-38 -3.67655e-38 0)
(-7.78625e-37 -3.63395e-37 0)
(-6.5938e-36 -3.31892e-36 0)
(-4.79889e-35 -2.99091e-35 0)
(-3.38693e-34 -2.40249e-34 0)
(-1.68893e-33 -1.91188e-33 0)
(-8.09989e-33 -1.12835e-32 0)
(-5.26005e-35 -5.69678e-32 0)
(8.03323e-33 -9.36309e-33 0)
(-1.26583e-35 -3.72169e-34 0)
(1.48281e-34 -1.47077e-34 0)
(4.01925e-35 -1.07481e-34 0)
(1.67527e-35 -2.12555e-35 0)
(3.18899e-36 -3.94846e-36 0)
(6.00873e-37 -5.50217e-37 0)
(8.66892e-38 -7.36312e-38 0)
(1.19888e-38 -8.72353e-39 0)
(1.44678e-39 -1.11439e-39 0)
(1.43779e-40 -2.68418e-40 0)
(-1.99074e-41 8.79139e-41 0)
(1.73773e-41 2.44845e-40 0)
(3.85186e-41 -5.78452e-41 0)
(-1.04568e-41 -1.56467e-40 0)
(-2.33001e-41 6.45051e-41 0)
(4.18861e-42 9.98022e-41 0)
(9.2402e-42 2.51041e-41 0)
(2.40542e-42 5.69295e-42 0)
(5.61523e-43 9.30569e-43 0)
(9.36402e-44 1.40866e-43 0)
(1.44142e-44 1.82476e-44 0)
(1.89284e-45 2.21851e-45 0)
(2.32999e-46 2.44709e-46 0)
(2.87013e-47 2.31039e-47 0)
(2.89202e-47 -2.33356e-47 0)
(2.35432e-46 -2.46982e-46 0)
(1.9156e-45 -2.24167e-45 0)
(1.46148e-44 -1.84676e-44 0)
(9.52166e-44 -1.42851e-43 0)
(5.72937e-43 -9.46777e-43 0)
(2.47044e-42 -5.81821e-42 0)
(9.53089e-42 -2.59304e-41 0)
(3.90215e-42 -1.05052e-40 0)
(-4.12921e-41 -9.00537e-41 0)
(-2.91751e-40 7.34912e-42 0)
(-2.96184e-39 -7.59727e-40 0)
(-3.00764e-38 -9.4871e-39 0)
(-2.94896e-37 -9.88757e-38 0)
(-2.65034e-36 -1.01093e-36 0)
(-2.3135e-35 -9.69905e-36 0)
(-1.75025e-34 -9.48678e-35 0)
(-1.29269e-33 -8.52964e-34 0)
(-6.85352e-33 -7.8006e-33 0)
(-3.47949e-32 -5.36681e-32 0)
(-4.59247e-34 -3.05502e-31 0)
(3.14667e-32 -4.73467e-32 0)
(-8.33038e-36 -2.67394e-36 0)
(-7.59162e-35 -1.8349e-35 0)
(-3.85249e-34 -1.34284e-34 0)
(-3.91631e-33 -1.025e-34 0)
(-3.59955e-33 2.58417e-34 0)
(3.59955e-33 2.58417e-34 0)
(3.91631e-33 -1.025e-34 0)
(3.85254e-34 -1.34282e-34 0)
(7.6014e-35 -1.83537e-35 0)
(8.58553e-36 -2.90702e-36 0)
(1.17745e-36 -3.30685e-37 0)
(1.25559e-37 -3.95128e-38 0)
(-1.16263e-42 -7.96415e-39 0)
(-1.25572e-37 -3.95162e-38 0)
(-1.1776e-36 -3.30723e-37 0)
(-8.58697e-36 -2.90742e-36 0)
(-7.60286e-35 -1.83578e-35 0)
(-3.85382e-34 -1.34322e-34 0)
(-3.91751e-33 -1.02834e-34 0)
(-3.60827e-33 2.5547e-34 0)
(3.52235e-33 2.39728e-34 0)
(3.52235e-33 -2.39728e-34 0)
(-3.60827e-33 -2.5547e-34 0)
(-3.91751e-33 1.02834e-34 0)
(-3.85382e-34 1.34322e-34 0)
(-7.60287e-35 1.83577e-35 0)
(-8.58842e-36 2.90701e-36 0)
(-1.19226e-36 3.26669e-37 0)
(-2.55286e-37 -3.66556e-40 0)
(-1.20508e-36 -3.30277e-37 0)
(-8.70086e-36 -2.94211e-36 0)
(-7.70779e-35 -1.86488e-35 0)
(-3.92776e-34 -1.36894e-34 0)
(-3.98481e-33 -1.18241e-34 0)
(-3.91631e-33 1.39876e-34 0)
(-1.23926e-39 2.74457e-34 0)
(3.9163e-33 1.39873e-34 0)
(3.9847e-33 -1.18271e-34 0)
(3.91571e-34 -1.36956e-34 0)
(7.11995e-35 -1.67674e-35 0)
(-3.00034e-36 1.21194e-36 0)
(-2.42939e-35 9.74531e-36 0)
(-1.20445e-34 7.12322e-35 0)
(-7.87112e-34 5.42196e-35 0)
(-6.88223e-34 -1.36855e-34 0)
(6.88223e-34 -1.36855e-34 0)
(7.87112e-34 5.42196e-35 0)
(1.20448e-34 7.12319e-35 0)
(2.43381e-35 9.75603e-36 0)
(3.18282e-36 1.4666e-36 0)
(4.4981e-37 1.60419e-37 0)
(5.12169e-38 1.82421e-38 0)
(-5.33488e-43 3.53875e-39 0)
(-5.12228e-38 1.82435e-38 0)
(-4.49873e-37 1.60435e-37 0)
(-3.18345e-36 1.46678e-36 0)
(-2.43441e-35 9.75782e-36 0)
(-1.20501e-34 7.12501e-35 0)
(-7.87568e-34 5.43818e-35 0)
(-6.91458e-34 -1.3537e-34 0)
(6.63429e-34 -1.26936e-34 0)
(6.63429e-34 1.26936e-34 0)
(-6.91458e-34 1.3537e-34 0)
(-7.87568e-34 -5.43818e-35 0)
(-1.20501e-34 -7.12501e-35 0)
(-2.43442e-35 -9.7578e-36 0)
(-3.18408e-36 -1.4666e-36 0)
(-4.56012e-37 -1.58635e-37 0)
(-1.04241e-37 1.57486e-40 0)
(-4.61348e-37 1.60244e-37 0)
(-3.22983e-36 1.48288e-36 0)
(-2.47416e-35 9.89996e-36 0)
(-1.23228e-34 7.25545e-35 0)
(-8.08671e-34 6.26529e-35 0)
(-7.87112e-34 -7.4056e-35 0)
(-5.87969e-40 -1.45433e-34 0)
(7.87106e-34 -7.40548e-35 0)
(8.08622e-34 6.2661e-35 0)
(1.22733e-34 7.24792e-35 0)
(2.21372e-35 7.44279e-36 0)
(-8.55714e-37 4.59392e-37 0)
(-5.83399e-36 3.51018e-36 0)
(-2.20053e-35 2.05286e-35 0)
(-1.12054e-34 1.44424e-35 0)
(-9.51407e-35 -3.91208e-35 0)
(9.51407e-35 -3.91208e-35 0)
(1.12054e-34 1.44424e-35 0)
(2.20056e-35 2.05283e-35 0)
(5.84137e-36 3.51382e-36 0)
(8.70953e-37 5.60781e-37 0)
(1.37006e-37 6.67961e-38 0)
(1.667e-38 7.88529e-39 0)
(-2.05187e-43 1.60205e-39 0)
(-1.66723e-38 7.88596e-39 0)
(-1.37029e-37 6.68036e-38 0)
(-8.71176e-37 5.60862e-37 0)
(-5.84346e-36 3.51463e-36 0)
(-2.20227e-35 2.05362e-35 0)
(-1.12193e-34 1.451e-35 0)
(-9.60288e-35 -3.85522e-35 0)
(8.91602e-35 -3.55394e-35 0)
(8.91602e-35 3.55394e-35 0)
(-9.60288e-35 3.85522e-35 0)
(-1.12193e-34 -1.451e-35 0)
(-2.20227e-35 -2.05362e-35 0)
(-5.84348e-36 -3.51462e-36 0)
(-8.71402e-37 -5.6078e-37 0)
(-1.39142e-37 -6.59883e-38 0)
(-3.39851e-38 7.29946e-41 0)
(-1.40965e-37 6.67149e-38 0)
(-8.86199e-37 5.67777e-37 0)
(-5.9634e-36 3.57352e-36 0)
(-2.27545e-35 2.10294e-35 0)
(-1.17146e-34 1.74552e-35 0)
(-1.12054e-34 -2.16052e-35 0)
(-1.24178e-40 -4.2194e-35 0)
(1.12053e-34 -2.16046e-35 0)
(1.17138e-34 1.74592e-35 0)
(2.26781e-35 2.10062e-35 0)
(5.5504e-36 2.68191e-36 0)
(-1.73136e-37 1.44321e-37 0)
(-1.01741e-36 1.02442e-36 0)
(-2.93783e-36 5.55529e-36 0)
(-1.2212e-35 3.79787e-36 0)
(-1.0147e-35 -1.05821e-35 0)
(1.0147e-35 -1.05821e-35 0)
(1.2212e-35 3.79787e-36 0)
(2.93779e-36 5.55528e-36 0)
(1.01802e-36 1.02607e-36 0)
(1.71043e-37 1.77403e-37 0)
(2.92111e-38 2.2439e-38 0)
(3.75866e-39 2.79517e-39 0)
(-5.27131e-44 5.91126e-40 0)
(-3.75923e-39 2.79544e-39 0)
(-2.92169e-38 2.24419e-38 0)
(-1.71097e-37 1.77434e-37 0)
(-1.01851e-36 1.02637e-36 0)
(-2.94166e-36 5.55808e-36 0)
(-1.22417e-35 3.8206e-36 0)
(-1.03219e-35 -1.0402e-35 0)
(9.09931e-36 -9.53335e-36 0)
(9.09931e-36 9.53335e-36 0)
(-1.03219e-35 1.0402e-35 0)
(-1.22417e-35 -3.8206e-36 0)
(-2.94166e-36 -5.55808e-36 0)
(-1.01852e-36 -1.02636e-36 0)
(-1.71152e-37 -1.77402e-37 0)
(-2.97132e-38 -2.21408e-38 0)
(-7.67353e-39 2.77791e-41 0)
(-3.01393e-38 2.2408e-38 0)
(-1.74473e-37 1.79869e-37 0)
(-1.04387e-36 1.046e-36 0)
(-3.08299e-36 5.71275e-36 0)
(-1.30848e-35 4.66647e-36 0)
(-1.2212e-35 -5.89547e-36 0)
(-1.70663e-41 -1.14709e-35 0)
(1.22119e-35 -5.89534e-36 0)
(1.30843e-35 4.66705e-36 0)
(3.07764e-36 5.70181e-36 0)
(1.00606e-36 7.74376e-37 0)
(-3.21005e-38 3.12013e-38 0)
(-1.63622e-37 2.11687e-37 0)
(-3.26494e-37 1.07225e-36 0)
(-9.85966e-37 7.11742e-37 0)
(-7.97503e-37 -2.04076e-36 0)
(7.97503e-37 -2.04076e-36 0)
(9.85964e-37 7.11743e-37 0)
(3.26462e-37 1.07226e-36 0)
(1.63524e-37 2.12137e-37 0)
(3.04736e-38 3.87387e-38 0)
(5.627e-39 5.14451e-39 0)
(7.57902e-40 6.65182e-40 0)
(-1.19053e-44 1.45115e-40 0)
(-7.58028e-40 6.65252e-40 0)
(-5.62826e-39 5.14527e-39 0)
(-3.04852e-38 3.87465e-38 0)
(-1.63627e-37 2.12211e-37 0)
(-3.27243e-37 1.07293e-36 0)
(-9.91695e-37 7.1696e-37 0)
(-8.28758e-37 -2.00136e-36 0)
(6.28248e-37 -1.82341e-36 0)
(6.28248e-37 1.82341e-36 0)
(-8.28758e-37 2.00136e-36 0)
(-9.91695e-37 -7.1696e-37 0)
(-3.27243e-37 -1.07293e-36 0)
(-1.63628e-37 -2.1221e-37 0)
(-3.0497e-38 -3.87386e-38 0)
(-5.73218e-39 -5.07128e-39 0)
(-1.54932e-39 6.96727e-42 0)
(-5.82093e-39 5.13671e-39 0)
(-3.11635e-38 3.93228e-38 0)
(-1.68475e-37 2.16688e-37 0)
(-3.51986e-37 1.10645e-36 0)
(-1.12396e-36 8.89693e-37 0)
(-9.85965e-37 -1.14645e-36 0)
(-7.04332e-43 -2.22333e-36 0)
(9.85966e-37 -1.14644e-36 0)
(1.1241e-36 8.89701e-37 0)
(3.5306e-37 1.1034e-36 0)
(1.70558e-37 1.57883e-37 0)
(-5.27883e-39 6.09394e-39 0)
(-2.40121e-38 3.96212e-38 0)
(-3.21891e-38 1.92882e-37 0)
(-4.92455e-38 1.25838e-37 0)
(-3.70064e-38 -3.67314e-37 0)
(3.70064e-38 -3.67314e-37 0)
(4.92452e-38 1.25839e-37 0)
(3.2182e-38 1.9289e-37 0)
(2.39669e-38 3.97524e-38 0)
(4.85674e-39 7.62433e-39 0)
(9.51475e-40 1.05166e-39 0)
(1.32964e-40 1.40565e-40 0)
(-2.29344e-45 3.14489e-41 0)
(-1.32988e-40 1.40581e-40 0)
(-9.51712e-40 1.05183e-39 0)
(-4.85888e-39 7.62606e-39 0)
(-2.39855e-38 3.97683e-38 0)
(-3.23192e-38 1.93031e-37 0)
(-5.02155e-38 1.26907e-37 0)
(-4.20004e-38 -3.59549e-37 0)
(1.20692e-38 -3.26494e-37 0)
(1.20692e-38 3.26494e-37 0)
(-4.20004e-38 3.59549e-37 0)
(-5.02155e-38 -1.26907e-37 0)
(-3.23192e-38 -1.93031e-37 0)
(-2.39857e-38 -3.97681e-38 0)
(-4.86105e-39 -7.62432e-39 0)
(-9.70491e-40 -1.03578e-39 0)
(-2.72113e-40 1.53862e-42 0)
(-9.86461e-40 1.04993e-39 0)
(-4.97755e-39 7.7473e-39 0)
(-2.48002e-38 4.0679e-38 0)
(-3.62057e-38 1.99588e-37 0)
(-6.91884e-38 1.58894e-37 0)
(-4.92452e-38 -2.07479e-37 0)
(2.85126e-43 -4.0131e-37 0)
(4.92495e-38 -2.07479e-37 0)
(6.92439e-38 1.58866e-37 0)
(3.66415e-38 1.98838e-37 0)
(2.62084e-38 2.91477e-38 0)
(-6.78069e-40 9.84632e-40 0)
(-3.41443e-39 6.34864e-39 0)
(-3.0559e-39 3.06744e-38 0)
(1.64539e-39 1.97014e-38 0)
(1.90158e-39 -5.84963e-38 0)
(-1.90113e-39 -5.84959e-38 0)
(-1.64273e-39 1.97059e-38 0)
(3.07186e-39 3.07064e-38 0)
(3.41686e-39 6.56125e-39 0)
(7.34795e-40 1.30764e-39 0)
(1.50592e-40 1.86176e-40 0)
(2.16414e-41 2.55502e-41 0)
(-4.02933e-46 5.83851e-42 0)
(-2.16456e-41 2.55533e-41 0)
(-1.50633e-40 1.86209e-40 0)
(-7.35159e-40 1.30797e-39 0)
(-3.41996e-39 6.5642e-39 0)
(-3.09423e-39 3.0732e-38 0)
(1.48901e-39 1.9895e-38 0)
(1.14401e-39 -5.71626e-38 0)
(-5.47176e-39 -5.17455e-38 0)
(-5.47176e-39 5.17455e-38 0)
(1.14401e-39 5.71626e-38 0)
(1.48901e-39 -1.9895e-38 0)
(-3.09423e-39 -3.07319e-38 0)
(-3.42e-39 -6.56417e-39 0)
(-7.35527e-40 -1.30764e-39 0)
(-1.53764e-40 -1.83228e-40 0)
(-4.43312e-41 2.90051e-43 0)
(-1.56416e-40 1.85851e-40 0)
(-7.54431e-40 1.32992e-39 0)
(-3.54827e-39 6.72476e-39 0)
(-3.6753e-39 3.18505e-38 0)
(-1.17069e-39 2.5123e-38 0)
(1.64274e-39 -3.32066e-38 0)
(1.09381e-43 -6.40792e-38 0)
(-1.64147e-39 -3.32071e-38 0)
(1.18386e-39 2.51139e-38 0)
(3.77508e-39 3.17e-38 0)
(3.89421e-39 4.74785e-39 0)
(2.56635e-39 8.61204e-40 0)
(-6.30105e-41 -5.36474e-40 0)
(-1.31216e-40 4.39716e-39 0)
(8.84789e-40 2.9071e-39 0)
(7.8441e-40 -8.83423e-39 0)
(-7.80844e-40 -8.8314e-39 0)
(-8.60854e-40 2.93784e-39 0)
(3.00216e-40 4.63282e-39 0)
(4.65011e-40 1.01615e-39 0)
(1.04301e-40 2.08979e-40 0)
(2.20835e-41 3.05023e-41 0)
(3.24473e-42 4.27789e-42 0)
(-6.43586e-47 9.94323e-43 0)
(-3.24539e-42 4.27844e-42 0)
(-2.20899e-41 3.0508e-41 0)
(-1.04357e-40 2.09035e-40 0)
(-4.65483e-40 1.01665e-39 0)
(-3.0357e-40 4.6371e-39 0)
(8.38326e-40 2.96887e-39 0)
(6.73529e-40 -8.61784e-39 0)
(-1.26876e-39 -7.78395e-39 0)
(-1.26876e-39 7.78395e-39 0)
(6.73529e-40 8.61784e-39 0)
(8.38326e-40 -2.96887e-39 0)
(-3.03571e-40 -4.6371e-39 0)
(-4.6549e-40 -1.01665e-39 0)
(-1.04415e-40 -2.08978e-40 0)
(-2.25684e-41 -3.00001e-41 0)
(-6.65191e-42 5.00284e-44 0)
(-2.29726e-41 3.0446e-41 0)
(-1.07242e-40 2.12698e-40 0)
(-4.84222e-40 1.04287e-39 0)
(-3.8531e-40 4.81508e-39 0)
(4.80974e-40 3.77176e-39 0)
(8.6089e-40 -5.03217e-39 0)
(2.4477e-44 -9.69217e-39 0)
(-8.60629e-40 -5.03233e-39 0)
(-4.78543e-40 3.76963e-39 0)
(4.03109e-40 4.78784e-39 0)
(5.46961e-40 7.26583e-40 0)
(5.09119e-38 -1.15299e-38 0)
(5.49224e-39 -1.06047e-38 0)
(1.54063e-39 -8.55012e-40 0)
(3.48933e-40 2.38305e-40 0)
(1.60368e-40 -1.25908e-39 0)
(-1.3478e-40 -1.24445e-39 0)
(-1.5529e-40 4.08688e-40 0)
(3.14358e-41 6.51778e-40 0)
(6.13236e-41 1.46269e-40 0)
(1.41505e-41 3.08377e-41 0)
(3.06906e-42 4.59487e-42 0)
(4.58751e-43 6.55843e-43 0)
(-9.54075e-48 1.54635e-43 0)
(-4.58848e-43 6.55931e-43 0)
(-3.06999e-42 4.59579e-42 0)
(-1.41586e-41 3.08466e-41 0)
(-6.13899e-41 1.46348e-40 0)
(-3.1892e-41 6.52443e-40 0)
(1.5237e-40 4.13477e-40 0)
(1.22465e-40 -1.21153e-39 0)
(-2.01551e-40 -1.09209e-39 0)
(-2.01551e-40 1.09209e-39 0)
(1.22465e-40 1.21153e-39 0)
(1.5237e-40 -4.13477e-40 0)
(-3.18921e-41 -6.52443e-40 0)
(-6.13909e-41 -1.46347e-40 0)
(-1.41669e-41 -3.08377e-41 0)
(-3.13869e-42 -4.51675e-42 0)
(-9.41091e-43 7.86266e-45 0)
(-3.19657e-42 4.58602e-42 0)
(-1.45658e-41 3.14066e-41 0)
(-6.39858e-41 1.50285e-40 0)
(-4.29048e-41 6.78609e-40 0)
(1.05674e-40 5.28253e-40 0)
(1.55508e-40 -7.10688e-40 0)
(4.47865e-45 -1.36656e-39 0)
(-1.55463e-40 -7.10723e-40 0)
(-1.0528e-40 5.27852e-40 0)
(4.57075e-41 6.74192e-40 0)
(7.39244e-41 1.03542e-40 0)
(7.93796e-37 1.62447e-37 0)
(9.47099e-38 -6.76548e-38 0)
(1.29435e-38 -9.13554e-39 0)
(1.34924e-39 -8.35909e-40 0)
(1.53272e-40 -2.44638e-40 0)
(-7.02194e-42 -1.7309e-40 0)
(-2.094e-41 5.38378e-41 0)
(3.54283e-42 8.73687e-41 0)
(7.73895e-42 1.99689e-41 0)
(1.82288e-42 4.29102e-42 0)
(4.02548e-43 6.49698e-43 0)
(6.10295e-44 9.39943e-44 0)
(-1.15066e-48 2.24102e-44 0)
(-6.10404e-44 9.40082e-44 0)
(-4.02639e-43 6.49845e-43 0)
(-1.82348e-42 4.2925e-42 0)
(-7.74118e-42 1.99829e-41 0)
(-3.51859e-42 8.75e-41 0)
(2.15922e-41 5.49952e-41 0)
(1.73155e-41 -1.62373e-40 0)
(-2.73449e-41 -1.46125e-40 0)
(-2.73449e-41 1.46125e-40 0)
(1.73155e-41 1.62373e-40 0)
(2.15922e-41 -5.49952e-41 0)
(-3.5186e-42 -8.74999e-41 0)
(-7.74131e-42 -1.99828e-41 0)
(-1.82461e-42 -4.29119e-42 0)
(-4.11895e-43 -6.38388e-43 0)
(-1.25263e-43 1.14875e-45 0)
(-4.19677e-43 6.48416e-43 0)
(-1.87758e-42 4.37258e-42 0)
(-8.0807e-42 2.05383e-41 0)
(-4.9292e-42 9.11302e-41 0)
(1.57458e-41 7.05816e-41 0)
(2.2004e-41 -9.55993e-41 0)
(7.1307e-46 -1.83583e-40 0)
(-2.19971e-41 -9.56056e-41 0)
(-1.56883e-41 7.05153e-41 0)
(5.32716e-42 9.04675e-41 0)
(9.49015e-42 1.40257e-41 0)
(4.64846e-34 -2.27747e-33 0)
(1.45206e-33 -7.48253e-34 0)
(3.40872e-34 -5.19457e-34 0)
(1.14825e-34 -9.76701e-35 0)
(1.99245e-35 -1.71545e-35 0)
(3.52976e-36 -2.2951e-36 0)
(4.87081e-37 -2.96104e-37 0)
(6.53246e-38 -3.36978e-38 0)
(7.67149e-39 -3.71562e-39 0)
(8.64258e-40 -3.91118e-40 0)
(8.63178e-41 -2.78806e-41 0)
(1.0298e-41 1.89639e-41 0)
(4.28285e-42 -5.51601e-42 0)
(-9.32244e-43 -1.42307e-41 0)
(-2.15907e-42 5.85432e-42 0)
(3.42226e-43 9.09881e-42 0)
(8.14806e-43 2.3284e-42 0)
(2.15292e-43 5.4107e-43 0)
(5.09e-44 9.01519e-44 0)
(8.57824e-45 1.39039e-44 0)
(1.33172e-45 1.82933e-45 0)
(1.76182e-46 2.25544e-46 0)
(2.18148e-47 2.51795e-47 0)
(2.70173e-48 2.40034e-48 0)
(2.71776e-48 -2.4246e-48 0)
(2.1968e-47 -2.54142e-47 0)
(1.77188e-46 -2.27894e-46 0)
(1.33411e-45 -1.85112e-45 0)
(8.49558e-45 -1.40938e-44 0)
(4.88331e-44 -9.16136e-44 0)
(1.80201e-43 -5.51264e-43 0)
(3.17086e-43 -2.38055e-42 0)
(-6.1147e-42 -9.25044e-42 0)
(-8.02828e-41 -4.06694e-42 0)
(-8.93795e-40 4.86263e-41 0)
(-9.80935e-39 4.57754e-40 0)
(-1.01493e-37 4.62146e-39 0)
(-1.02201e-36 4.19236e-38 0)
(-9.45297e-36 2.94208e-37 0)
(-8.59956e-35 9.77761e-38 0)
(-6.79146e-34 -4.65444e-35 0)
(-5.38475e-33 -1.13023e-33 0)
(-3.06167e-32 -1.71053e-32 0)
(-1.83481e-31 -1.80319e-31 0)
(1.0494e-33 -1.08709e-30 0)
(1.83787e-31 -1.80251e-31 0)
(1.12607e-32 -1.23121e-32 0)
(1.96671e-32 -4.67358e-33 0)
(3.60628e-33 -3.47147e-33 0)
(8.46147e-34 -5.71214e-34 0)
(1.27725e-34 -9.58923e-35 0)
(2.01502e-35 -1.21621e-35 0)
(2.60328e-36 -1.52796e-36 0)
(3.31624e-37 -1.68927e-37 0)
(3.76103e-38 -1.82369e-38 0)
(4.13238e-39 -1.81864e-39 0)
(4.19517e-40 -1.74889e-40 0)
(4.12308e-41 -1.41804e-41 0)
(4.04899e-42 -1.83493e-42 0)
(2.65113e-43 -1.27693e-42 0)
(-1.28635e-43 4.67054e-43 0)
(2.59879e-44 7.43271e-43 0)
(5.84811e-44 1.92478e-43 0)
(1.56281e-44 4.51046e-44 0)
(3.75093e-45 7.57787e-45 0)
(6.40007e-46 1.17528e-45 0)
(1.00516e-46 1.55453e-46 0)
(1.34306e-47 1.92333e-47 0)
(1.6776e-48 2.154e-48 0)
(2.09673e-49 2.0578e-49 0)
(2.13671e-49 -2.06687e-49 0)
(1.73377e-48 -2.1569e-48 0)
(1.41579e-47 -1.9173e-47 0)
(1.09976e-46 -1.53452e-46 0)
(7.62227e-46 -1.13591e-45 0)
(5.32386e-45 -6.9271e-45 0)
(3.54824e-44 -3.54614e-44 0)
(3.04809e-43 -5.92277e-44 0)
(2.98268e-42 9.93103e-43 0)
(3.43731e-41 2.10442e-41 0)
(3.85075e-40 2.5643e-40 0)
(4.14995e-39 2.86945e-39 0)
(4.21732e-38 3.06946e-38 0)
(4.13307e-37 2.96538e-37 0)
(3.73988e-36 2.44142e-36 0)
(3.27281e-35 1.00081e-35 0)
(2.51615e-34 -1.56899e-34 0)
(1.87629e-33 -5.63873e-33 0)
(1.03718e-32 -9.98393e-32 0)
(5.47384e-32 -1.27992e-30 0)
(1.90724e-32 -1.13799e-29 0)
(-3.22201e-32 -1.28365e-30 0)
(1.56538e-31 -9.9075e-32 0)
(1.89893e-31 -1.23457e-32 0)
(2.46961e-32 -1.05167e-33 0)
(5.50198e-33 -6.75705e-35 0)
(7.48426e-34 -3.01108e-36 0)
(1.1421e-34 -5.70036e-38 0)
(1.40835e-35 8.09384e-39 0)
(1.75377e-36 1.35644e-39 0)
(1.93741e-37 1.53271e-40 0)
(2.09457e-38 1.45882e-41 0)
(2.09166e-39 1.37921e-42 0)
(2.02518e-40 2.4694e-43 0)
(1.85066e-41 -2.17061e-44 0)
(1.62791e-42 -8.44113e-44 0)
(1.26116e-43 3.50808e-44 0)
(1.29414e-44 5.48762e-44 0)
(5.15131e-45 1.43694e-44 0)
(1.22115e-45 3.40925e-45 0)
(2.84157e-46 5.79028e-46 0)
(4.83368e-47 9.06734e-47 0)
(7.60123e-48 1.20956e-47 0)
(1.01906e-48 1.50736e-48 0)
(1.2772e-49 1.69894e-49 0)
(1.69076e-50 1.6299e-50 0)
(3.03091e-50 -1.65551e-50 0)
(3.44028e-49 -1.72808e-49 0)
(4.20106e-48 -1.54322e-48 0)
(5.31913e-47 -1.25365e-47 0)
(6.82414e-46 -9.61739e-47 0)
(8.85607e-45 -6.47783e-46 0)
(1.13268e-43 -4.27781e-45 0)
(1.42556e-42 -2.52238e-44 0)
(1.73327e-41 -1.89672e-43 0)
(2.04544e-40 -1.65908e-42 0)
(2.30487e-39 -1.9009e-41 0)
(2.51125e-38 -2.12504e-40 0)
(2.58104e-37 -2.23473e-39 0)
(2.56892e-36 -2.02142e-38 0)
(2.35991e-35 -1.2841e-37 0)
(2.11368e-34 5.81623e-37 0)
(1.66077e-33 3.9638e-35 0)
(1.28964e-32 9.18066e-34 0)
(7.39767e-32 1.46287e-32 0)
(4.30706e-31 1.7544e-31 0)
(1.9508e-31 1.46792e-30 0)
(-2.10422e-31 1.75119e-31 0)
(1.68434e-32 -9.67079e-32 0)
(1.678e-32 -9.47263e-33 0)
(3.14329e-33 2.21911e-33 0)
(7.55165e-34 4.87153e-34 0)
(1.16255e-34 9.16377e-35 0)
(1.86406e-35 1.20145e-35 0)
(2.43631e-36 1.52864e-36 0)
(3.13195e-37 1.69645e-37 0)
(3.57667e-38 1.83308e-38 0)
(3.95198e-39 1.82685e-39 0)
(4.03236e-40 1.76486e-40 0)
(3.96633e-41 1.60889e-41 0)
(3.67781e-42 1.41565e-42 0)
(3.2836e-43 1.13059e-43 0)
(2.72316e-44 1.23155e-44 0)
(2.42645e-45 4.82663e-45 0)
(4.77933e-46 1.13115e-45 0)
(9.45131e-47 2.60379e-46 0)
(2.06755e-47 4.40724e-47 0)