/*--------------------------------*- C++ -*----------------------------------*\
| =========                 |                                                 |
| \\      /  F ield         | OpenFOAM: The Open Source CFD Toolbox           |
|  \\    /   O peration     | Version:  2.4.0                                 |
|   \\  /    A nd           | Web:      www.OpenFOAM.org                      |
|    \\/     M anipulation  |                                                 |
\*---------------------------------------------------------------------------*/
FoamFile
{
    version     2.0;
    format      ascii;
    class       surfaceScalarField;
    location    "0.9";
    object      phi;
}
// * * * * * * * * * * * * * * * * * * * * * * * * * * * * * * * * * * * * * //

dimensions      [0 3 -1 0 0 0 0];

internalField   nonuniform List<scalar> 
3782
(
-6.6531e-39
5.72673e-37
-8.24836e-39
1.2221e-37
-2.6038e-39
2.49208e-38
-6.82281e-39
3.6608e-39
-5.583e-38
-1.01164e-39
-4.00287e-37
-5.43943e-38
-2.99635e-36
-9.77557e-37
-1.43799e-35
-1.26543e-35
-1.02371e-34
-2.10611e-34
-4.72652e-34
-6.60043e-37
-3.20427e-34
7.51758e-35
-1.40564e-32
-1.43916e-35
1.43639e-32
-1.58813e-34
3.5022e-34
-1.10583e-35
4.89433e-34
7.81984e-35
1.18752e-34
1.23288e-35
1.14456e-34
7.54774e-38
4.09292e-34
-1.10244e-35
-3.24495e-34
-7.06872e-35
1.51551e-32
1.23066e-34
-3.40375e-32
2.7315e-34
-1.05265e-33
-9.14079e-35
-1.5891e-33
-2.72903e-34
1.60303e-32
9.67555e-35
-3.57954e-32
2.72069e-34
-1.03827e-33
-1.86248e-34
1.74181e-32
-2.08542e-34
-1.82901e-32
6.77257e-35
1.81906e-32
8.87894e-36
-1.96118e-32
-1.95891e-34
-5.94006e-34
-1.95934e-35
-6.61317e-34
-1.07593e-34
-1.42743e-34
-1.70535e-35
-2.13327e-35
-2.8937e-36
-1.98513e-35
-1.72712e-38
-1.32993e-34
2.74275e-36
-5.37747e-34
1.49026e-35
4.23459e-34
9.33218e-35
-1.99628e-32
-1.61409e-34
4.48097e-32
-3.61952e-34
1.9586e-33
1.03445e-34
1.69974e-33
2.57949e-34
3.92432e-35
3.81675e-36
-4.96971e-38
2.21656e-35
-3.36235e-37
1.33556e-34
-2.17781e-36
-1.09219e-35
5.665e-34
7.76761e-37
-6.07179e-38
4.3134e-36
-4.08629e-37
2.34775e-35
-2.62121e-36
-1.30253e-35
9.28952e-35
1.47862e-37
-1.31582e-38
7.37986e-37
-8.70269e-38
3.47042e-36
-5.30851e-37
-2.493e-36
1.03153e-35
2.01483e-38
-4.64967e-40
9.28929e-38
-1.34372e-38
3.86094e-37
-9.86425e-38
-4.41029e-37
8.80213e-37
1.39268e-39
1.74343e-38
1.02626e-38
2.78142e-38
4.28785e-38
-5.48019e-39
-5.64829e-38
7.30574e-38
-3.58761e-38
9.23782e-38
-1.53465e-38
1.77503e-37
-2.72568e-39
4.47738e-38
2.59976e-39
4.20909e-39
-6.14018e-37
4.63239e-37
-1.98126e-37
1.04758e-36
-6.50861e-38
2.38894e-37
4.80997e-38
-1.39823e-38
-7.5895e-36
-2.38753e-36
-1.80463e-36
3.32832e-37
-4.45884e-37
1.11845e-37
2.75814e-38
-8.50968e-38
-1.43799e-35
-2.26709e-35
-1.0919e-35
-4.96806e-36
-2.50168e-36
-7.73875e-37
-1.17974e-37
-4.31425e-37
6.81189e-36
-9.48244e-35
1.80533e-36
-1.38541e-35
3.09374e-37
-1.54638e-36
-1.63775e-37
4.20274e-38
8.7701e-35
-5.31496e-34
1.88007e-35
-5.61833e-35
3.69128e-36
-4.43601e-36
-2.3018e-37
5.84428e-37
-1.72122e-35
-4.45836e-34
-4.28421e-36
-4.55703e-35
-9.01246e-37
-3.4799e-36
-1.65912e-37
-1.52523e-37
-1.84465e-34
4.79903e-34
-3.9989e-35
4.92957e-35
-7.94945e-36
3.78747e-36
1.83726e-37
-1.27397e-36
-1.33577e-35
5.46339e-34
-3.42966e-36
5.77703e-35
-7.26655e-37
4.55137e-36
2.32396e-37
-1.23754e-37
9.07127e-35
9.71678e-35
1.95419e-35
1.32348e-35
3.86683e-36
1.35818e-36
1.2052e-37
6.16916e-37
1.48057e-35
2.54508e-35
3.71413e-36
4.69047e-36
7.77853e-37
6.67164e-37
9.05909e-38
1.31084e-37
9.94767e-38
2.40645e-35
3.41594e-38
4.33149e-36
9.17394e-39
6.00739e-37
7.96915e-38
1.88186e-39
-1.31815e-35
7.8823e-35
-3.24674e-36
9.18215e-36
-6.64439e-37
7.04164e-37
2.21032e-38
-1.0974e-37
-8.12025e-35
4.73409e-34
-1.66615e-35
4.42012e-35
-3.21632e-36
2.75878e-36
1.37794e-38
-5.0018e-37
1.44128e-34
-2.47434e-34
3.24748e-35
-3.32889e-35
6.55717e-36
-3.3998e-36
-3.01263e-37
1.06735e-36
3.17151e-34
-1.83383e-33
6.86257e-35
-1.94499e-34
1.36246e-35
-1.55618e-35
-8.50815e-37
2.18079e-36
-1.06008e-34
-1.31179e-33
-2.28065e-35
-1.43375e-34
-4.50632e-36
-1.20058e-35
-7.49082e-37
-7.17894e-37
-3.16517e-34
2.5681e-34
-6.81253e-35
1.22174e-35
-1.34769e-35
-8.11146e-37
-3.4707e-37
-2.1496e-36
1.1218e-34
-2.92908e-34
2.41031e-35
-4.10603e-35
4.75738e-36
-4.4405e-36
-4.34708e-37
7.57214e-37
3.15044e-34
-1.86014e-33
6.7282e-35
-1.95812e-34
1.32711e-35
-1.5611e-35
-8.54717e-37
2.11022e-36
-2.15739e-34
-7.74018e-34
-4.61533e-35
-8.59139e-35
-9.12699e-36
-7.22655e-36
-4.45152e-37
-1.4549e-36
-2.42674e-34
4.34696e-34
-5.31237e-35
3.81978e-35
-1.05976e-35
2.16199e-36
-2.72335e-38
-1.7046e-36
7.81698e-35
3.55339e-35
1.55587e-35
2.25255e-36
2.94861e-36
-1.8279e-37
-7.86393e-38
4.49379e-37
2.15038e-35
-1.12175e-34
5.46087e-36
-1.35236e-35
1.02517e-36
-1.16126e-36
-5.80751e-38
1.55538e-37
1.02738e-34
-7.56874e-34
1.09966e-35
-8.3276e-35
1.69902e-36
-7.04882e-36
-4.61502e-37
2.26573e-37
-1.25615e-35
-7.51706e-34
-2.95457e-36
-8.31818e-35
-7.13728e-37
-7.11426e-36
-4.79989e-37
-1.34226e-37
-1.24234e-34
-1.32132e-34
-2.70341e-35
-1.848e-35
-5.41209e-36
-1.97727e-36
-1.90747e-37
-8.73179e-37
-2.0462e-35
-3.03821e-35
-5.16902e-36
-5.60391e-36
-1.09369e-36
-7.98189e-37
-1.09101e-37
-1.86061e-37
-3.52395e-36
-5.10782e-36
-9.36948e-37
-1.07547e-36
-2.10602e-37
-1.73117e-37
-2.61207e-38
-3.75308e-38
-2.23193e-38
-4.7077e-36
-7.28381e-39
-9.66992e-37
-2.04182e-39
-1.52251e-37
-2.24648e-38
-4.3139e-40
3.32955e-36
-2.74772e-35
8.72242e-37
-4.83586e-36
1.93025e-37
-6.54013e-37
-8.46686e-38
3.39003e-38
1.78335e-35
-1.03423e-34
4.40811e-36
-1.19844e-35
9.05852e-37
-9.06401e-37
-2.5503e-38
1.50193e-37
1.07214e-34
-6.24495e-34
2.20091e-35
-5.82807e-35
4.24966e-36
-3.6291e-36
-1.58623e-38
6.61053e-37
-1.8906e-34
3.22354e-34
-4.26279e-35
4.3831e-35
-8.61144e-36
4.5363e-36
4.11259e-37
-1.40241e-36
-4.20418e-34
2.4323e-33
-9.11383e-35
2.60003e-34
-1.81163e-35
2.10859e-35
1.20467e-36
-2.90309e-36
1.19365e-34
1.83316e-33
2.50566e-35
2.01249e-34
4.91226e-36
1.6774e-35
1.01787e-36
7.76052e-37
3.0018e-34
3.41869e-34
6.56704e-35
4.83268e-35
1.30993e-35
5.21035e-36
5.02066e-37
2.10673e-36
4.72127e-35
1.19872e-35
2.55213e-36
4.36729e-37
7.68205e-34
-6.15906e-35
1.27633e-32
-4.25189e-35
1.80413e-35
1.17293e-34
-1.26358e-32
1.15545e-34
-1.61557e-34
-5.39491e-35
3.04259e-34
-1.25207e-34
1.32331e-32
-6.51201e-35
8.63103e-34
5.19685e-35
5.91797e-34
6.33463e-35
1.24329e-34
1.14058e-35
1.7882e-35
2.01267e-36
2.08857e-36
2.7662e-37
-4.80309e-36
1.01375e-37
-3.31739e-35
5.07224e-37
-2.31006e-34
3.75863e-36
-1.06157e-33
2.08299e-35
-1.14899e-33
1.15513e-34
-2.57046e-32
4.22704e-35
1.21884e-32
-1.7329e-34
5.75095e-34
-1.36878e-34
1.37173e-32
-1.28823e-35
1.09336e-33
6.59093e-35
1.20227e-33
6.38163e-35
1.00836e-33
-4.54027e-35
1.33734e-32
-5.12607e-35
8.82866e-34
5.4827e-35
5.95101e-34
6.96102e-35
1.26948e-34
1.50373e-35
2.364e-35
-1.65452e-36
3.78115e-35
-6.22496e-36
2.47629e-34
-4.4648e-36
1.17675e-33
-2.16997e-35
1.66808e-33
-1.14237e-34
2.6328e-32
7.15829e-35
1.81863e-33
1.64704e-34
-1.15942e-32
8.44039e-35
2.43192e-32
-1.55275e-36
-2.549e-32
1.6222e-34
-9.97819e-34
4.88776e-36
-8.79666e-35
4.63129e-34
-7.17534e-35
7.14326e-34
-4.90279e-35
3.51901e-36
1.3653e-34
-6.91816e-34
1.34429e-34
-3.64954e-34
-6.26691e-35
3.90414e-34
-1.45945e-34
7.9027e-34
-7.59964e-35
4.81355e-34
6.02852e-35
9.73403e-35
7.38635e-35
2.18695e-35
1.36125e-35
3.48529e-36
2.42303e-36
4.18531e-37
3.36414e-37
-9.70295e-37
1.23886e-37
-6.44608e-36
6.16511e-37
-4.03021e-35
4.52183e-36
-1.73276e-34
2.48398e-35
-8.68178e-34
1.3439e-34
-1.11657e-33
4.87248e-35
-5.99953e-35
-2.01666e-34
7.74172e-34
-1.59918e-34
8.68135e-34
-1.59712e-35
5.20785e-34
7.02585e-35
1.99044e-34
6.89976e-35
5.08153e-34
-5.90732e-35
8.15259e-34
-6.00474e-35
4.84555e-34
6.31494e-35
9.81541e-35
7.5296e-35
2.3854e-35
1.91291e-35
4.78736e-36
-3.1371e-36
6.6591e-36
-1.38758e-36
4.32195e-35
-4.86812e-36
1.9231e-34
-2.64451e-35
9.52736e-34
-1.39781e-34
1.56286e-33
-1.05445e-34
6.36566e-34
1.83949e-34
1.57288e-34
9.18122e-35
2.14135e-34
-5.60529e-36
-7.39688e-34
1.82427e-34
-7.82899e-34
1.13255e-35
-9.75607e-35
3.71218e-35
-1.1934e-35
5.34659e-35
-7.61498e-36
6.08286e-37
2.25949e-35
-5.00604e-35
2.21722e-35
-2.60875e-35
-1.02355e-35
2.9988e-35
-2.43657e-35
6.11384e-35
-1.27897e-35
3.97598e-35
9.75248e-36
1.08642e-35
1.236e-35
3.27776e-36
2.61505e-36
6.00708e-37
4.91678e-37
7.86122e-38
7.22836e-38
-1.84356e-37
2.74121e-38
-1.10152e-36
1.32005e-37
-5.96446e-36
9.13842e-37
-1.85384e-35
4.74677e-36
-6.91252e-35
2.21636e-35
-8.50024e-35
7.54927e-36
-5.39936e-36
-3.33315e-35
5.88336e-35
-2.70562e-35
6.91406e-35
-3.08325e-36
4.55819e-35
1.1643e-35
2.24728e-35
1.15044e-35
4.38886e-35
-9.49217e-36
6.49492e-35
-9.68893e-36
4.03314e-35
1.03489e-35
1.10215e-35
1.26577e-35
3.61145e-36
3.71017e-36
8.47128e-37
-6.12918e-37
1.13856e-36
-2.86557e-37
6.29697e-36
-9.90661e-37
2.04536e-35
-5.04597e-36
7.75042e-35
-2.32411e-35
1.2391e-34
-1.18234e-35
5.65902e-35
2.99244e-35
1.64317e-35
1.58971e-35
1.43388e-35
7.58061e-37
-5.7561e-35
2.97317e-35
-6.31274e-35
2.20279e-36
-1.52645e-35
2.16615e-36
-1.99164e-36
2.83699e-36
-1.23921e-36
7.73275e-38
3.77626e-36
-2.44993e-36
3.6972e-36
-1.20704e-36
-1.70309e-36
1.65561e-36
-4.08098e-36
3.41471e-36
-2.1537e-36
2.45362e-36
1.61224e-36
9.35491e-37
2.07326e-36
3.69183e-37
4.62563e-37
7.61835e-38
9.26334e-38
1.05682e-38
1.43072e-38
-2.50291e-38
5.63449e-39
-1.38777e-37
2.60109e-38
-6.63545e-37
1.71544e-37
-1.51367e-36
8.34202e-37
-4.02987e-36
3.69543e-36
-4.64271e-36
1.22646e-36
-3.34635e-37
-5.57388e-36
3.16533e-36
-4.55858e-36
4.02644e-36
-5.51888e-37
3.09346e-36
1.92789e-36
1.97102e-36
1.86773e-36
2.9382e-36
-1.57357e-36
3.8514e-36
-1.60078e-36
2.52227e-36
1.72432e-36
9.58405e-37
2.12056e-36
4.23602e-37
6.05761e-37
1.10803e-37
-5.24638e-38
1.37662e-37
-4.46369e-38
6.91581e-37
-1.83009e-37
1.66943e-36
-8.75838e-37
4.66253e-36
-3.83745e-36
7.32123e-36
-1.71719e-36
3.83381e-36
5.02423e-36
1.29871e-36
2.7141e-36
7.21438e-37
1.79225e-37
-3.30823e-36
4.95345e-36
-3.89345e-36
4.28032e-37
-2.44878e-36
7.25359e-38
-2.47806e-37
5.63138e-38
-1.49583e-37
9.72011e-39
4.70608e-37
-1.16521e-38
4.59706e-37
9.5604e-39
-2.11088e-37
4.26753e-38
-5.10107e-37
9.45514e-38
-2.70624e-37
1.04532e-37
1.98498e-37
7.89789e-38
2.59526e-37
4.22301e-38
6.12553e-38
9.55402e-39
1.28547e-38
1.39377e-39
2.07215e-39
-3.32776e-39
8.39705e-40
-1.7299e-38
3.75351e-39
-7.50927e-38
2.37264e-38
-1.17299e-37
1.0991e-37
-1.37206e-37
4.59441e-37
-1.13769e-37
1.47797e-37
-1.16388e-38
-6.94819e-37
6.71018e-38
-5.73511e-37
1.36979e-37
-7.3482e-38
1.76686e-37
2.39867e-37
1.70471e-37
2.35086e-37
1.61297e-37
-1.92624e-37
1.45208e-37
-1.96631e-37
1.13324e-37
2.14325e-37
8.2051e-38
2.6649e-37
4.90757e-38
8.18877e-38
1.4121e-38
-8.05451e-39
1.70077e-38
-6.52404e-39
7.66519e-38
-2.52595e-38
1.25541e-37
-1.14357e-37
1.76151e-37
-4.7379e-37
2.78511e-37
-1.97432e-37
2.16766e-37
6.27293e-37
9.61568e-38
3.47405e-37
1.56433e-38
4.01739e-38
-1.12967e-37
6.15584e-37
-1.76623e-37
5.93511e-38
-2.98393e-37
-2.00077e-39
-2.89362e-38
-7.92446e-39
-1.79474e-38
1.06963e-39
5.82654e-38
1.25365e-38
5.67954e-38
8.61027e-39
-2.60519e-38
-3.11633e-39
-6.3196e-38
-5.48202e-39
-3.36591e-38
1.60085e-39
2.43759e-38
6.60244e-39
3.21862e-38
4.38288e-39
7.84236e-39
1.05701e-39
1.71373e-39
1.59124e-40
2.85513e-40
-3.82397e-40
1.18616e-40
-1.90594e-39
5.15497e-40
-7.73066e-39
3.15476e-39
-9.00186e-39
1.40068e-38
2.62607e-39
5.67548e-38
9.63926e-39
1.79297e-38
2.76286e-40
-8.60414e-38
-8.25965e-39
-7.13346e-38
-2.68511e-39
-9.47526e-39
8.96885e-39
2.95272e-38
1.46267e-38
2.89047e-38
7.64365e-39
-2.36322e-38
-1.66734e-40
-2.41203e-38
2.5526e-39
2.64943e-38
6.96756e-39
3.30845e-38
5.22304e-39
1.0298e-38
1.58791e-39
-7.80008e-40
1.82112e-39
-8.29011e-40
7.74854e-39
-3.31623e-39
9.20927e-39
-1.43443e-38
-5.00487e-40
-5.76318e-38
1.93601e-40
-2.0159e-38
1.07242e-38
7.8426e-38
7.04451e-39
4.37986e-38
-1.41446e-39
5.89705e-39
1.95438e-39
7.61824e-38
-4.55902e-39
8.03871e-39
-3.62151e-38
-3.227e-39
4.59035e-39
-1.90022e-39
-9.01322e-40
6.48047e-41
6.443e-39
2.00334e-39
6.1687e-39
1.28925e-39
-2.81795e-39
-7.10258e-40
-6.86984e-39
-1.35503e-39
-3.67219e-39
-3.10479e-40
2.62548e-39
6.04013e-40
3.50231e-39
4.58631e-40
8.80702e-40
1.14954e-40
1.98452e-40
1.7692e-41
3.39926e-41
-4.27218e-41
1.43974e-41
-2.06651e-40
6.12111e-41
-8.0479e-40
3.64492e-40
-7.69433e-40
1.56729e-39
1.14179e-39
6.15048e-39
2.10068e-39
1.90536e-39
1.08751e-40
-9.34398e-39
-1.64066e-39
-7.78564e-39
-1.14705e-39
-1.06794e-39
4.55066e-40
3.20065e-39
1.36247e-39
3.16448e-39
3.29093e-40
-2.53314e-39
-7.95116e-40
-2.5928e-39
-2.05731e-40
2.87378e-39
6.45068e-40
3.61132e-39
5.50202e-40
1.17492e-39
1.73815e-40
-1.00267e-40
1.94764e-40
-9.98727e-41
7.89653e-40
-3.8079e-40
7.18494e-40
-1.58318e-39
-1.05171e-39
-6.16149e-39
-1.41256e-39
-1.83784e-39
5.47811e-40
8.58497e-39
5.90276e-40
4.84961e-39
-2.91873e-40
7.94279e-40
8.95086e-40
8.26956e-39
2.22327e-40
9.33783e-40
-3.88458e-39
-1.35139e-38
4.40453e-39
-2.02785e-39
4.46984e-40
-2.30823e-40
7.50257e-40
1.9287e-40
6.62648e-40
1.37066e-40
-2.98258e-40
-8.38481e-41
-7.30944e-40
-1.61602e-40
-3.91829e-40
-4.88181e-41
2.7762e-40
5.50969e-41
3.72957e-40
4.4702e-41
9.5784e-41
1.15154e-41
2.21228e-41
1.79837e-42
3.87016e-42
-4.36012e-42
1.66508e-42
-2.06562e-41
6.95375e-42
-7.81451e-41
4.05604e-41
-6.75325e-41
1.69946e-40
1.44473e-40
6.53136e-40
2.45707e-40
1.99642e-40
1.38561e-41
-9.94024e-40
-1.8913e-40
-8.30798e-40
-1.45228e-40
-1.16626e-40
2.51649e-41
3.3931e-40
1.25897e-40
3.36287e-40
1.43357e-41
-2.67353e-40
-1.06707e-40
-2.73851e-40
-3.84437e-41
3.0543e-40
5.93744e-41
3.85104e-40
5.43879e-41
1.27322e-40
1.75428e-41
-9.9221e-42
1.89861e-41
-1.09997e-41
7.51981e-41
-4.18699e-41
5.72651e-41
-1.68632e-40
-1.42697e-40
-6.42534e-40
-1.89947e-40
-1.46696e-40
3.26102e-41
9.23925e-40
5.18687e-41
5.23865e-40
-3.24607e-41
9.3657e-41
1.13718e-40
8.79767e-40
4.81739e-41
1.04889e-40
-4.08293e-40
-6.50549e-38
-1.63334e-38
-8.57667e-39
-1.91471e-39
-1.08802e-39
-1.40903e-40
-1.04614e-40
4.21109e-41
-2.37875e-43
-3.14662e-41
-9.95574e-42
-7.19407e-41
-1.6635e-41
-3.85607e-41
-5.36483e-42
2.70667e-41
5.10244e-42
3.66174e-41
4.27011e-42
9.596e-42
1.11986e-42
2.25972e-42
1.76794e-43
4.02495e-43
-4.29972e-43
1.75366e-43
-2.00551e-42
7.21861e-43
-7.44609e-42
4.13662e-42
-6.13808e-42
1.6985e-41
1.50081e-41
6.39504e-41
2.49223e-41
1.92829e-41
1.45127e-42
-9.74764e-41
-1.90995e-41
-8.17346e-41
-1.50803e-41
-1.17086e-41
1.68799e-42
3.32373e-41
1.1737e-41
3.31936e-41
7.20272e-43
-2.59638e-41
-1.12276e-41
-2.66571e-41
-4.33761e-42
2.99343e-41
5.52863e-42
3.7903e-41
5.22009e-42
1.29057e-41
1.7104e-42
-1.10188e-42
1.80983e-42
-1.15574e-42
7.01224e-42
-4.2342e-42
4.60261e-42
-1.65763e-41
-1.53756e-41
-6.1841e-41
-1.97285e-41
-1.02555e-41
2.68128e-42
9.15699e-41
4.82712e-42
5.21805e-41
-3.18888e-42
1.0329e-41
1.17968e-41
8.62851e-41
5.56199e-42
1.07325e-41
-3.97303e-41
3.41706e-39
-1.70753e-38
1.72444e-40
-1.69293e-39
-1.21675e-41
-1.67135e-40
-2.47745e-42
-1.21125e-41
4.57569e-43
-4.62698e-42
-8.86839e-43
-7.01936e-42
-1.52792e-42
-3.69836e-42
-5.05655e-43
2.56673e-42
4.5215e-43
3.49241e-42
3.84505e-43
9.2897e-43
1.02361e-43
2.22193e-43
1.62915e-44
4.01379e-44
-3.97302e-44
1.76679e-44
-1.83079e-43
7.18773e-44
-6.69051e-43
4.0625e-43
-5.38607e-43
1.64107e-42
1.38825e-42
6.08703e-42
2.28418e-42
1.81666e-42
1.35401e-43
-9.2899e-42
-1.74867e-42
-7.80766e-42
-1.39645e-42
-1.13609e-42
1.26107e-43
3.16174e-42
1.04592e-42
3.16781e-42
4.70126e-44
-2.45813e-42
-1.03943e-42
-2.5265e-42
-4.124e-43
2.85138e-42
4.92164e-43
3.62024e-42
4.74612e-43
1.25106e-42
1.56914e-43
-1.04969e-43
1.61065e-43
-1.13701e-43
6.16872e-43
-4.10909e-43
3.56312e-43
-1.571e-42
-1.45822e-42
-5.76903e-42
-1.80119e-42
-5.27404e-43
2.4811e-43
8.83667e-42
4.34665e-43
5.04009e-42
-2.81151e-43
1.05686e-42
1.0922e-42
8.225e-42
5.29804e-43
1.05902e-42
-3.75721e-42
7.43755e-38
2.88207e-40
8.61482e-39
1.68792e-39
9.49033e-40
2.471e-40
9.82686e-41
2.78795e-41
9.83392e-42
2.43022e-42
8.48262e-43
-3.67467e-43
-5.0042e-44
-3.09742e-43
-3.75986e-44
2.31539e-43
3.98134e-44
3.14109e-43
3.36806e-44
8.46994e-44
9.05869e-45
2.05148e-44
1.45074e-45
3.75153e-45
-3.54498e-45
1.66542e-45
-1.61779e-44
6.70932e-45
-5.84209e-44
3.74663e-44
-4.64304e-44
1.4936e-43
1.22497e-43
5.46115e-43
2.00708e-43
1.61351e-43
1.20303e-44
-8.34387e-43
-1.53604e-43
-7.02886e-43
-1.23261e-43
-1.03685e-43
1.01123e-44
2.83852e-43
9.09575e-44
2.8611e-43
3.61811e-45
-2.19117e-43
-9.15578e-44
-2.25667e-43
-3.67175e-44
2.56034e-43
4.27907e-44
3.26088e-43
4.17082e-44
1.15112e-43
1.38937e-44
-1.03754e-44
1.39183e-44
-1.07248e-44
5.26351e-44
-3.75198e-44
2.62893e-44
-1.40335e-43
-1.31932e-43
-5.07423e-43
-1.55817e-43
-1.0018e-44
2.4495e-44
8.03227e-43
3.86845e-44
4.58784e-43
-2.39406e-44
1.02444e-43
9.63408e-44
7.38965e-43
4.72009e-44
9.78437e-44
-3.35756e-43
-2.03861e-38
2.91266e-39
-2.47154e-39
1.65513e-39
-2.82985e-40
2.29679e-40
-3.03135e-41
2.52952e-41
-3.09745e-42
2.45906e-42
-3.07772e-43
1.76623e-43
-3.9348e-44
-8.59639e-45
-6.2913e-45
2.16641e-44
3.02769e-45
2.74987e-44
2.78551e-45
7.47223e-45
7.61154e-46
1.82692e-45
1.22679e-46
3.37329e-46
-3.00717e-46
1.50777e-46
-1.36135e-45
6.02537e-46
-4.86289e-45
3.33214e-45
-3.82811e-45
1.3141e-44
1.02398e-44
4.75115e-44
1.67329e-44
1.39242e-44
1.01204e-45
-7.26579e-44
-1.28079e-44
-6.13175e-44
-1.03149e-44
-9.14587e-45
7.96382e-46
2.46967e-44
7.55803e-45
2.49776e-44
3.00408e-46
-1.89732e-44
-7.63204e-45
-1.95649e-44
-3.08621e-45
2.22892e-44
3.55389e-45
2.84521e-44
3.50392e-45
1.01768e-44
1.17212e-45
-9.30545e-46
1.14e-45
-9.60283e-46
4.28006e-45
-3.29649e-45
1.81786e-45
-1.20949e-44
-1.12809e-44
-4.31854e-44
-1.276e-44
2.64441e-45
2.29648e-45
7.08605e-44
3.28543e-45
4.04361e-44
-1.92514e-45
9.40857e-45
8.0636e-45
6.43656e-44
3.95656e-45
8.7237e-45
-2.90892e-44
-1.64415e-37
-2.60915e-39
-1.92937e-38
-1.74113e-39
-2.15489e-39
-2.44479e-40
-2.25668e-40
-2.70495e-41
-2.26727e-41
-2.67333e-42
-2.16573e-42
-2.53503e-43
-2.00069e-43
-2.44864e-44
-1.78646e-44
-2.36779e-46
-1.23472e-45
2.11908e-45
1.03926e-46
6.14321e-46
5.24216e-47
1.5376e-46
9.30407e-48
2.87552e-47
-2.47266e-47
1.29581e-47
-1.10956e-46
5.14526e-47
-3.92852e-46
2.82103e-46
-3.07051e-46
1.1026e-45
8.28986e-46
3.94432e-45
1.35212e-45
1.14699e-45
8.23639e-47
-6.03681e-45
-1.03511e-45
-5.10359e-45
-8.3557e-46
-7.6865e-46
6.21402e-47
2.052e-45
6.09741e-46
2.08563e-45
2.46109e-47
-1.56674e-45
-6.16284e-46
-1.61854e-45
-2.50507e-46
1.85173e-45
2.86652e-46
2.36953e-45
2.84798e-46
8.61616e-46
9.5602e-47
-8.35744e-47
9.05581e-47
-8.27906e-47
3.37204e-46
-2.75995e-46
1.1599e-46
-9.94239e-46
-9.35012e-46
-3.50654e-45
-1.00989e-45
4.99958e-46
2.10224e-46
5.96283e-45
2.72043e-46
3.40011e-45
-1.50643e-46
8.25869e-46
6.53205e-46
5.34969e-45
3.20687e-46
7.39289e-46
-2.40883e-45
-1.65474e-38
-1.23654e-39
-2.00658e-39
-1.88301e-39
-2.29273e-40
-2.7291e-40
-2.452e-41
-3.04832e-41
-2.50369e-42
-3.02216e-42
-2.42722e-43
-2.82599e-43
-2.26664e-44
-2.52456e-44
-2.03839e-45
-2.01081e-45
-1.5307e-46
6.79909e-48
3.26928e-48
3.68625e-47
3.71971e-48
1.15808e-47
7.01035e-49
2.29605e-48
-1.94837e-48
1.06855e-48
-8.68435e-48
4.24026e-48
-3.04973e-47
2.30851e-47
-2.36804e-47
8.95621e-47
6.44454e-47
3.17602e-46
1.04942e-46
9.17562e-47
6.43365e-48
-4.86424e-46
-8.03598e-47
-4.11828e-46
-6.50252e-47
-6.25298e-47
4.66003e-48
1.65312e-46
4.73007e-47
1.68582e-46
1.98202e-48
-1.25624e-46
-4.7787e-47
-1.29951e-46
-1.95348e-47
1.49189e-46
2.22281e-47
1.91276e-46
2.22811e-47
7.03689e-47
7.49032e-48
-7.01686e-48
6.88501e-48
-6.83577e-48
2.55124e-47
-2.23017e-47
6.67579e-48
-7.90013e-47
-7.43276e-47
-2.75669e-46
-7.67594e-47
6.40225e-47
1.81945e-47
4.86918e-46
2.16194e-47
2.77041e-46
-1.12854e-47
6.94138e-47
5.08618e-47
4.31187e-46
2.49358e-47
6.05809e-47
-1.93454e-46
7.9302e-38
9.77294e-39
9.27457e-39
7.17061e-40
1.03292e-39
5.78245e-41
1.07905e-40
5.08816e-42
1.08187e-41
4.56613e-43
1.03126e-42
4.07912e-44
9.47031e-44
3.52363e-45
8.33583e-45
3.08483e-46
7.10938e-46
3.84818e-47
5.95257e-47
5.89814e-48
4.99712e-48
1.14255e-48
4.1641e-49
1.99031e-49
-1.21477e-49
8.61584e-50
-6.57454e-49
3.35352e-49
-2.29974e-48
1.81366e-48
-1.7759e-48
6.99251e-48
4.8652e-48
2.45937e-47
7.91156e-48
7.06113e-48
4.8769e-49
-3.76895e-47
-6.05971e-48
-3.19543e-47
-4.91265e-48
-4.88646e-48
3.41839e-49
1.28136e-47
3.56444e-48
1.31226e-47
1.53733e-49
-9.68341e-48
-3.59966e-48
-1.00339e-47
-1.47793e-48
1.15596e-47
1.67464e-48
1.48507e-47
1.69008e-48
5.53722e-48
5.68697e-49
-5.80719e-49
5.08019e-49
-5.45424e-49
1.87214e-48
-1.73101e-48
3.22717e-49
-6.03248e-48
-5.74055e-48
-2.08304e-47
-5.65804e-48
6.76137e-48
1.525e-48
3.82283e-47
1.67241e-48
2.17037e-47
-8.23036e-49
5.61161e-48
3.84436e-48
3.34214e-47
1.88289e-48
4.76205e-48
-1.49572e-47
1.73851e-38
1.15332e-38
2.09393e-39
1.24015e-39
2.37961e-40
1.27878e-40
2.53327e-41
1.28014e-41
2.57695e-42
1.22296e-42
2.48966e-43
1.1277e-43
2.31168e-44
9.9663e-45
2.05583e-45
8.5235e-46
1.7657e-46
7.11832e-47
1.46895e-47
5.89623e-48
1.19562e-48
5.07905e-49
9.49713e-50
4.68235e-50
-4.09328e-51
8.92258e-51
-4.78607e-50
2.5831e-50
-1.67563e-49
1.38083e-49
-1.28734e-49
5.2957e-49
3.54865e-49
1.8496e-48
5.76327e-49
5.28197e-49
3.57043e-50
-2.83594e-48
-4.41558e-49
-2.4073e-48
-3.58691e-49
-3.70367e-49
2.41836e-50
9.64407e-49
2.59652e-49
9.90835e-49
1.16071e-50
-7.25465e-49
-2.62003e-49
-7.52763e-49
-1.08089e-49
8.69789e-49
1.21943e-49
1.11932e-48
1.23997e-49
4.21728e-49
4.1708e-50
-4.5687e-50
3.61082e-50
-4.19335e-50
1.32632e-49
-1.30049e-49
1.05143e-50
-4.46245e-49
-4.28016e-49
-1.52625e-48
-4.02901e-49
6.48993e-49
1.22116e-49
2.91576e-48
1.24893e-49
1.6503e-48
-5.78583e-50
4.37205e-49
2.8092e-49
2.51558e-48
1.37322e-49
3.62805e-49
-1.12312e-48
2.95121e-40
9.94482e-39
4.00593e-41
1.05479e-39
5.00944e-42
1.0772e-40
5.74104e-43
1.07132e-41
6.19853e-44
1.01814e-42
6.28468e-45
9.35022e-44
6.07208e-46
8.2344e-45
5.58239e-47
7.01432e-46
4.93554e-48
5.76638e-47
4.24213e-49
4.60588e-48
3.60359e-50
3.58785e-49
3.0053e-51
2.75132e-50
-5.7467e-52
2.40984e-51
-3.43223e-51
2.0319e-51
-1.18814e-50
1.0159e-50
-9.08516e-51
3.87581e-50
2.51788e-50
1.34482e-49
4.08468e-50
3.82095e-50
2.54161e-51
-2.06292e-49
-3.13032e-50
-1.75313e-49
-2.54715e-50
-2.71173e-50
1.67126e-51
7.01972e-50
1.84014e-50
7.23904e-50
8.46625e-52
-5.25358e-50
-1.85558e-50
-5.46003e-50
-7.68591e-51
6.32745e-50
8.63961e-51
8.1568e-50
8.83983e-51
3.10833e-50
2.97104e-51
-3.5195e-51
2.49391e-51
-3.12504e-51
9.12755e-51
-9.43635e-51
-1.96937e-52
-3.18864e-50
-3.10501e-50
-1.08028e-49
-2.78755e-50
5.73153e-50
9.47717e-51
2.14974e-49
9.08398e-51
1.21294e-49
-3.9615e-51
3.29182e-50
1.99638e-50
1.83053e-49
9.74302e-51
2.66773e-50
-8.15928e-50
-1.42442e-38
-3.62283e-39
-1.68789e-39
-7.78421e-40
-1.89009e-40
-9.93241e-41
-1.9888e-41
-1.07969e-41
-2.00276e-42
-1.06939e-42
-1.91904e-43
-1.0041e-43
-1.76934e-44
-8.97882e-45
-1.56433e-45
-7.73631e-46
-1.33588e-46
-6.41504e-47
-1.09997e-47
-5.14897e-48
-8.77489e-49
-3.99578e-49
-6.77736e-50
-3.00809e-50
-5.14167e-51
-2.17222e-51
-6.09196e-52
-2.13001e-53
-8.43664e-52
7.13791e-52
-6.2403e-52
2.75643e-51
1.73301e-51
9.51229e-51
2.80866e-51
2.69055e-51
1.75466e-52
-1.45974e-50
-2.15309e-51
-1.24179e-50
-1.75503e-51
-1.92972e-51
1.11898e-52
4.97003e-51
1.26554e-51
5.14101e-51
6.01258e-53
-3.70295e-51
-1.27502e-51
-3.85387e-51
-5.30372e-52
4.4776e-51
5.93962e-52
5.78088e-51
6.11753e-52
2.22378e-51
2.05257e-52
-2.60335e-52
1.66661e-52
-2.25407e-52
6.08727e-52
-6.64479e-52
-7.80631e-53
-2.21203e-51
-2.18393e-51
-7.42695e-51
-1.87021e-51
4.78913e-51
7.08038e-52
1.54216e-50
6.40589e-52
8.6689e-51
-2.62629e-52
2.39929e-51
1.37691e-51
1.29571e-50
6.7047e-52
1.90555e-51
-5.76663e-51
-6.31409e-38
-2.65469e-38
-7.26032e-39
-4.44179e-39
-7.98087e-40
-5.28238e-40
-8.23729e-41
-5.56478e-41
-8.17788e-42
-5.40701e-42
-7.72504e-43
-5.01221e-43
-7.04033e-44
-4.43464e-44
-6.15439e-45
-3.78812e-45
-5.20462e-46
-3.11689e-46
-4.24542e-47
-2.48536e-47
-3.35869e-48
-1.91798e-48
-2.57359e-49
-1.43804e-49
-1.9174e-50
-1.04684e-50
-1.4035e-51
-7.32886e-52
-1.52604e-52
-1.07013e-54
-4.82625e-53
1.86839e-52
1.15793e-52
6.52767e-52
1.88176e-52
1.839e-52
1.1798e-53
-1.00241e-51
-1.44316e-52
-8.53576e-52
-1.17816e-52
-1.33189e-52
7.32119e-54
3.41577e-52
8.48154e-53
3.54517e-52
4.14166e-54
-2.53278e-52
-8.53843e-53
-2.64009e-52
-3.56502e-53
3.07514e-52
3.97946e-53
3.97626e-52
4.12217e-53
1.54476e-52
1.38026e-53
-1.88104e-53
1.08377e-53
-1.58005e-53
3.94966e-53
-4.53683e-53
-9.63326e-54
-1.4878e-52
-1.49681e-52
-4.95025e-52
-1.22121e-52
3.79127e-52
5.13632e-53
1.07356e-51
4.40461e-53
6.01192e-52
-1.69725e-53
1.6961e-52
9.25209e-53
8.90087e-52
4.49586e-53
1.31938e-52
-3.95743e-52
1.39022e-37
-2.45085e-38
1.64576e-38
-1.81163e-39
1.84939e-39
-1.47546e-40
1.9479e-40
-1.30959e-41
1.96576e-41
-1.18362e-42
1.88501e-42
-1.06379e-43
1.73975e-43
-9.26553e-45
1.53856e-44
-7.83961e-46
1.31422e-45
-6.40238e-47
1.08195e-46
-5.07363e-48
8.62962e-48
-3.89316e-49
6.6624e-49
-2.90418e-50
4.99626e-50
-2.10431e-51
3.63769e-51
-1.47905e-52
2.54419e-52
-6.83027e-54
1.51108e-53
1.21054e-53
8.78589e-54
4.36374e-53
1.23511e-53
1.22533e-53
7.77034e-55
-6.70768e-53
-9.41304e-54
-5.71672e-53
-7.69675e-54
-8.95215e-54
4.65735e-55
2.28748e-53
5.53242e-54
2.38105e-53
2.7813e-55
-1.68878e-53
-5.56434e-54
-1.76281e-53
-2.33226e-54
2.05795e-53
2.59482e-54
2.66465e-53
2.70383e-54
1.04413e-53
9.02903e-55
-1.31347e-54
6.84082e-55
-1.07565e-54
2.49034e-54
-3.01299e-54
-9.15469e-55
-9.73433e-54
-9.97807e-54
-3.21012e-53
-7.75428e-54
2.87994e-53
3.60563e-54
7.28348e-53
2.94568e-54
4.06162e-53
-1.06544e-54
1.16456e-53
6.05105e-54
5.95797e-53
2.93306e-54
8.89281e-54
-2.64664e-53
2.81147e-37
-8.00929e-39
3.29619e-38
4.80736e-39
3.67862e-39
7.49095e-40
3.84979e-40
8.50627e-41
3.86565e-41
8.46671e-42
3.68966e-42
7.9113e-43
3.39228e-43
7.01728e-44
2.98935e-44
5.99878e-45
2.5457e-45
4.93677e-46
2.08988e-46
3.9366e-47
1.66276e-47
3.03784e-48
1.28075e-48
2.27762e-49
9.58477e-50
1.65827e-50
6.96691e-51
1.17561e-51
4.92873e-52
8.1363e-53
3.38142e-53
6.30007e-54
2.7683e-54
3.20317e-54
9.31002e-55
8.18187e-55
5.88908e-56
-4.36715e-54
-5.98686e-55
-3.72623e-54
-4.90658e-55
-5.85374e-55
2.89759e-56
1.49125e-54
3.52226e-55
1.55703e-54
1.81724e-56
-1.09595e-54
-3.53951e-55
-1.14572e-54
-1.48877e-55
1.3405e-54
1.65146e-55
1.73806e-54
1.73e-55
6.87062e-55
5.75989e-56
-8.95512e-56
4.20717e-56
-7.13203e-56
1.52982e-55
-1.94592e-55
-7.6831e-56
-6.19228e-55
-6.49136e-55
-2.02354e-54
-4.79953e-55
2.09954e-54
2.46263e-55
4.80929e-54
1.92327e-55
2.67044e-54
-6.52618e-56
7.77739e-55
3.86201e-55
3.88166e-54
1.86749e-55
5.82879e-55
-1.72344e-54
-9.21478e-38
-2.50314e-38
-1.07636e-38
1.2944e-39
-1.19745e-39
3.12195e-40
-1.24976e-40
3.8379e-41
-1.25202e-41
3.90912e-42
-1.19262e-42
3.67986e-43
-1.09461e-43
3.27154e-44
-9.63125e-45
2.79864e-45
-8.19111e-46
2.30352e-46
-6.71659e-47
1.83683e-47
-5.3384e-48
1.41738e-48
-4.10818e-49
1.0626e-49
-3.07197e-50
7.73578e-51
-2.23135e-51
5.4835e-52
-1.57841e-52
3.78593e-53
-1.08821e-53
2.60137e-54
-7.00577e-55
3.4814e-55
5.7471e-58
6.11116e-56
-3.10602e-60
-2.77021e-55
-3.74078e-56
-2.37007e-55
-3.05267e-56
-3.73399e-56
1.75656e-57
9.48842e-56
2.18759e-56
9.93434e-56
1.15915e-57
-6.94368e-56
-2.19619e-56
-7.26928e-56
-9.27051e-57
8.52217e-56
1.02531e-56
1.10637e-55
1.07988e-56
4.40814e-56
3.58294e-57
-5.92631e-57
2.5174e-57
-4.60481e-57
9.1512e-57
-1.22486e-56
-5.92683e-57
-3.8384e-56
-4.11754e-56
-1.24285e-55
-2.89493e-56
1.47926e-55
1.63371e-56
3.09967e-55
1.22436e-56
1.71331e-55
-3.89223e-57
5.05798e-56
2.40458e-56
2.46822e-55
1.15961e-56
3.72604e-56
-1.09544e-55
-2.76309e-37
-6.14608e-38
-3.23129e-38
-7.52787e-39
-3.59869e-39
-8.13658e-40
-3.75937e-40
-8.27704e-41
-3.76919e-41
-7.9347e-42
-3.59287e-42
-7.31408e-43
-3.2996e-43
-6.45267e-44
-2.9048e-44
-5.50215e-45
-2.47159e-45
-4.52085e-46
-2.0275e-46
-3.60067e-47
-1.61205e-47
-2.77576e-48
-1.24095e-48
-2.07926e-49
-9.28204e-50
-1.5126e-50
-6.74373e-51
-1.0715e-51
-4.771e-52
-7.39063e-53
-3.28707e-53
-4.96996e-54
-2.20751e-54
-3.15344e-55
-1.41972e-55
-1.78389e-56
-9.10177e-57
-1.85342e-56
-2.84092e-57
-1.4791e-56
-1.89032e-57
-2.32789e-57
1.0218e-58
5.88995e-57
1.32792e-57
6.18465e-57
7.21047e-59
-4.29179e-57
-1.33203e-57
-4.49967e-57
-5.64138e-58
5.28553e-57
6.22234e-58
6.87036e-57
6.58606e-58
2.75923e-57
2.17711e-58
-3.83122e-58
1.46931e-58
-2.90118e-58
5.33978e-58
-7.51526e-58
-4.30809e-58
-2.31831e-57
-2.55251e-57
-7.43527e-57
-1.70442e-57
1.00745e-56
1.05647e-57
1.94886e-56
7.61907e-58
1.07223e-56
-2.26725e-58
3.20687e-57
1.46322e-57
1.53108e-56
7.03762e-58
2.32206e-57
-6.79442e-57
9.71167e-38
-4.08482e-38
1.13374e-38
-3.53227e-39
1.26066e-39
-3.23553e-40
1.31526e-40
-3.06779e-41
1.31723e-41
-2.864e-42
1.25444e-42
-2.61501e-43
1.15112e-43
-2.29937e-44
1.01269e-44
-1.95821e-45
8.61154e-46
-1.60804e-46
7.0606e-47
-1.28029e-47
5.61133e-48
-9.86695e-49
4.31791e-49
-7.38924e-50
3.22861e-50
-5.37416e-51
2.34501e-51
-3.80609e-52
1.6586e-52
-2.62469e-53
1.14245e-53
-1.7656e-54
7.67849e-55
-1.15241e-55
5.05237e-56
-7.24799e-57
3.2378e-57
-1.51004e-57
6.8153e-59
-9.20851e-58
-9.77651e-59
-1.42925e-58
6.7944e-60
3.5731e-58
7.88399e-59
3.76259e-58
4.38807e-60
-2.59343e-58
-7.89538e-59
-2.7229e-58
-3.35501e-59
3.20421e-58
3.69052e-59
4.16987e-58
3.92572e-59
1.68696e-58
1.29243e-59
-2.41171e-59
8.35799e-60
-1.78373e-59
3.03873e-59
-4.50168e-59
-2.9793e-59
-1.36645e-58
-1.54583e-58
-4.33943e-58
-9.79547e-59
6.66075e-58
6.65463e-59
1.19774e-57
4.63189e-59
6.55798e-58
-1.28821e-59
1.98413e-58
8.70218e-59
9.28332e-58
4.17343e-59
1.41365e-58
-4.11952e-58
2.70789e-37
-8.87974e-39
3.16121e-38
4.67009e-39
3.51648e-39
7.31736e-40
3.66913e-40
8.31429e-41
3.67535e-41
8.27222e-42
3.50028e-42
7.72576e-43
3.21219e-43
6.84905e-44
2.82583e-44
5.8525e-45
2.40292e-45
4.81452e-46
1.97e-46
3.83798e-47
1.56551e-47
2.96098e-48
1.20452e-48
2.21957e-49
9.00537e-50
1.61574e-50
6.53985e-51
1.14529e-51
4.62487e-52
7.90447e-53
3.1851e-53
5.3221e-54
2.14006e-54
3.4969e-55
1.40331e-55
2.24573e-56
8.99162e-57
1.34667e-57
5.55389e-58
3.35971e-59
2.81168e-59
-3.18775e-60
2.41533e-60