/*--------------------------------*- C++ -*----------------------------------*\
| =========                 |                                                 |
| \\      /  F ield         | OpenFOAM: The Open Source CFD Toolbox           |
|  \\    /   O peration     | Version:  2.4.0                                 |
|   \\  /    A nd           | Web:      www.OpenFOAM.org                      |
|    \\/     M anipulation  |                                                 |
\*---------------------------------------------------------------------------*/
FoamFile
{
    version     2.0;
    format      ascii;
    class       volVectorField;
    location    "0.4";
    object      U;
}
// * * * * * * * * * * * * * * * * * * * * * * * * * * * * * * * * * * * * * //

dimensions      [0 1 -1 0 0 0 0];

internalField   nonuniform List<vector> 
1935
(
(3.08463e-36 8.30887e-37 0)
(3.84227e-35 6.92864e-36 0)
(2.17106e-34 7.54031e-35 0)
(3.13031e-33 6.31078e-35 0)
(2.94893e-33 -1.46389e-34 0)
(-2.94852e-33 -1.4632e-34 0)
(-3.12689e-33 6.40562e-35 0)
(-1.75574e-34 8.3219e-35 0)
(2.17487e-34 8.93408e-35 0)
(3.34779e-33 1.40344e-34 0)
(6.12074e-33 -7.53332e-35 0)
(2.58962e-34 -2.09497e-34 0)
(-2.68992e-33 6.31078e-35 0)
(2.99079e-33 1.3851e-34 0)
(3.13375e-33 -6.40626e-35 0)
(2.17487e-34 -7.54796e-35 0)
(3.847e-35 -6.93752e-36 0)
(3.06476e-36 -8.79093e-37 0)
(3.50954e-37 -6.97869e-38 0)
(2.71123e-38 -6.44846e-39 0)
(2.44973e-39 -4.68852e-40 0)
(1.76175e-40 -3.64474e-41 0)
(1.35485e-41 -2.43824e-42 0)
(9.60863e-43 -1.56673e-43 0)
(9.64169e-43 1.57308e-43 0)
(1.36058e-41 2.44792e-42 0)
(1.77012e-40 3.6604e-41 0)
(2.46237e-39 4.71122e-40 0)
(2.72748e-38 6.48244e-39 0)
(3.53226e-37 7.0219e-38 0)
(3.0894e-36 8.85067e-37 0)
(3.87935e-35 7.00078e-36 0)
(2.20195e-34 7.6288e-35 0)
(3.1691e-33 7.01081e-35 0)
(3.1691e-33 -7.01081e-35 0)
(2.20195e-34 -7.6288e-35 0)
(3.87935e-35 -7.00078e-36 0)
(3.0894e-36 -8.85067e-37 0)
(3.53226e-37 -7.0219e-38 0)
(2.72748e-38 -6.48245e-39 0)
(2.46233e-39 -4.71187e-40 0)
(1.76707e-40 -3.7175e-41 0)
(1.19523e-41 -7.90627e-42 0)
(-1.08881e-41 -2.96925e-41 0)
(5.69177e-37 -3.83612e-37 0)
(6.38402e-36 -3.56609e-36 0)
(3.75067e-35 -3.88448e-35 0)
(3.71211e-34 -3.24928e-35 0)
(3.3958e-34 7.53789e-35 0)
(-3.39502e-34 7.53448e-35 0)
(-3.70565e-34 -3.29663e-35 0)
(-3.05337e-35 -4.28553e-35 0)
(3.75788e-35 -4.60185e-35 0)
(4.08789e-34 -7.22533e-35 0)
(7.17757e-34 3.88104e-35 0)
(4.45405e-35 1.07872e-34 0)
(-2.95028e-34 -3.24928e-35 0)
(3.46613e-34 -7.13373e-35 0)
(3.71861e-34 3.29694e-35 0)
(3.75788e-35 3.88823e-35 0)
(6.39413e-36 3.57142e-36 0)
(5.79507e-37 4.39458e-37 0)
(6.60627e-38 3.43255e-38 0)
(5.42755e-39 3.10348e-39 0)
(4.92895e-40 2.22341e-40 0)
(3.67362e-41 1.70343e-41 0)
(2.84685e-42 1.12675e-42 0)
(2.06845e-43 7.17082e-44 0)
(2.07574e-43 -7.19944e-44 0)
(2.85927e-42 -1.13114e-42 0)
(3.69163e-41 -1.7106e-41 0)
(4.95546e-40 -2.23391e-40 0)
(5.46141e-39 -3.11938e-39 0)
(6.65185e-38 -3.45306e-38 0)
(5.84436e-37 -4.42337e-37 0)
(6.45469e-36 -3.60261e-36 0)
(3.80912e-35 -3.9287e-35 0)
(3.77665e-34 -3.60951e-35 0)
(3.77665e-34 3.60951e-35 0)
(3.80912e-35 3.9287e-35 0)
(6.45469e-36 3.60261e-36 0)
(5.84436e-37 4.42337e-37 0)
(6.65185e-38 3.45306e-38 0)
(5.46136e-39 3.11932e-39 0)
(4.95119e-40 2.22686e-40 0)
(3.28299e-41 1.07982e-41 0)
(-1.93643e-41 -6.00798e-41 0)
(-1.60287e-40 -3.38471e-40 0)
(1.13156e-37 -7.12885e-38 0)
(1.05745e-36 -6.5808e-37 0)
(4.00262e-36 -5.95401e-36 0)
(3.00043e-35 -4.78293e-36 0)
(2.69646e-35 1.14846e-35 0)
(-2.69478e-35 1.14777e-35 0)
(-2.98807e-35 -4.8722e-36 0)
(-2.83446e-36 -6.69546e-36 0)
(4.01821e-36 -7.27842e-36 0)
(3.40223e-35 -1.09092e-35 0)
(5.81355e-35 5.94709e-36 0)
(5.18371e-36 1.62675e-35 0)
(-2.17784e-35 -4.78293e-36 0)
(2.81456e-35 -1.07369e-35 0)
(3.01288e-35 4.87283e-36 0)
(4.01821e-36 5.96158e-36 0)
(1.05905e-36 6.59102e-37 0)
(1.09204e-37 8.24161e-38 0)
(1.42629e-38 6.9105e-39 0)
(1.24684e-39 6.30443e-40 0)
(1.2008e-40 4.69469e-41 0)
(9.25269e-42 3.62982e-42 0)
(7.38767e-43 2.46293e-43 0)
(5.4762e-44 1.58007e-44 0)
(5.49598e-44 -1.58656e-44 0)
(7.42105e-43 -2.4728e-43 0)
(9.30028e-42 -3.64562e-42 0)
(1.20767e-40 -4.71763e-41 0)
(1.25534e-39 -6.33825e-40 0)
(1.43736e-38 -6.95379e-39 0)
(1.10329e-37 -8.29991e-38 0)
(1.07205e-36 -6.65374e-37 0)
(4.11291e-36 -6.03699e-36 0)
(3.10762e-35 -5.44825e-36 0)
(3.10762e-35 5.44825e-36 0)
(4.11291e-36 6.03699e-36 0)
(1.07205e-36 6.65374e-37 0)
(1.10329e-37 8.29991e-38 0)
(1.43735e-38 6.95373e-39 0)
(1.25481e-39 6.33208e-40 0)
(1.16005e-40 3.9917e-41 0)
(-3.68135e-41 -6.18351e-41 0)
(-2.52476e-40 -6.42675e-40 0)
(-1.85692e-39 -3.60383e-39 0)
(1.44733e-38 -1.59095e-38 0)
(1.18536e-37 -1.32005e-37 0)
(3.15412e-37 -1.13072e-36 0)
(1.83517e-36 -8.98653e-37 0)
(1.62656e-36 2.1813e-36 0)
(-1.62428e-36 2.1797e-36 0)
(-1.81957e-36 -9.18535e-37 0)
(-1.83043e-37 -1.28122e-36 0)
(3.1751e-37 -1.39665e-36 0)
(2.15266e-36 -2.06765e-36 0)
(3.59388e-36 1.12908e-36 0)
(4.49497e-37 3.07995e-36 0)
(-1.17671e-36 -8.98649e-37 0)
(1.76064e-36 -2.02933e-36 0)
(1.85091e-36 9.18691e-37 0)
(3.1751e-37 1.13248e-36 0)
(1.18709e-37 1.32255e-37 0)
(1.36683e-38 1.82824e-38 0)
(1.91513e-39 1.61681e-39 0)
(1.76378e-40 1.56107e-40 0)
(1.75021e-41 1.20228e-41 0)
(1.38913e-42 9.58593e-43 0)
(1.12821e-43 6.63442e-44 0)
(8.52749e-45 4.32573e-45 0)
(8.55898e-45 -4.34387e-45 0)
(1.13346e-43 -6.66175e-44 0)
(1.39653e-42 -9.62918e-43 0)
(1.76068e-41 -1.20845e-41 0)
(1.77654e-40 -1.56999e-40 0)
(1.93122e-39 -1.62786e-39 0)
(1.38269e-38 -1.84263e-38 0)
(1.20445e-37 -1.33714e-37 0)
(3.29228e-37 -1.14912e-36 0)
(1.9556e-36 -1.03235e-36 0)
(1.9556e-36 1.03235e-36 0)
(3.29228e-37 1.14912e-36 0)
(1.20445e-37 1.33714e-37 0)
(1.38269e-38 1.84263e-38 0)
(1.93076e-39 1.62734e-39 0)
(1.72157e-40 1.50977e-40 0)
(-3.1865e-41 -5.96096e-41 0)
(-4.83312e-40 -6.5263e-40 0)
(-2.69734e-39 -6.52801e-39 0)
(-2.00597e-38 -3.72465e-38 0)
(1.64921e-39 -3.79378e-39 0)
(1.40247e-38 -1.74625e-38 0)
(2.28066e-38 -1.36833e-37 0)
(7.71935e-38 -1.0676e-37 0)
(6.68461e-38 2.63107e-37 0)
(-6.65302e-38 2.62883e-37 0)
(-7.51812e-38 -1.09438e-37 0)
(-7.11034e-39 -1.56182e-37 0)
(2.30674e-38 -1.71026e-37 0)
(1.0024e-37 -2.48523e-37 0)
(1.59658e-37 1.36351e-37 0)
(3.86836e-38 3.69839e-37 0)
(-2.81103e-38 -1.06727e-37 0)
(8.27454e-38 -2.43306e-37 0)
(7.91896e-38 1.09461e-37 0)
(2.30674e-38 1.36836e-37 0)
(1.39404e-38 1.71198e-38 0)
(1.73115e-39 2.48325e-39 0)
(2.60806e-40 2.30243e-40 0)
(2.48912e-41 2.28669e-41 0)
(2.54694e-42 1.81378e-42 0)
(2.0629e-43 1.47109e-43 0)
(1.70276e-44 1.03762e-44 0)
(1.30356e-45 6.83636e-46 0)
(1.30845e-45 -6.86567e-46 0)
(1.71084e-44 -1.04199e-44 0)
(2.0742e-43 -1.47792e-43 0)
(2.56274e-42 -1.82342e-42 0)
(2.50803e-41 -2.30035e-41 0)
(2.63144e-40 -2.31908e-40 0)
(1.75346e-39 -2.50428e-39 0)
(1.41759e-38 -1.73269e-38 0)
(2.45326e-38 -1.39085e-37 0)
(9.13489e-38 -1.24052e-37 0)
(9.13489e-38 1.24052e-37 0)
(2.45326e-38 1.39085e-37 0)
(1.41759e-38 1.73269e-38 0)
(1.75307e-39 2.50395e-39 0)
(2.58574e-40 2.274e-40 0)
(-2.9271e-41 -2.98771e-41 0)
(-4.91797e-40 -6.35093e-40 0)
(-4.92666e-39 -5.88629e-39 0)
(-2.79084e-38 -5.98189e-38 0)
(-2.12097e-37 -3.49987e-37 0)
(-2.43752e-39 -1.66205e-38 0)
(2.53993e-39 -6.13332e-39 0)
(1.85079e-39 -1.99142e-38 0)
(1.44777e-39 -1.3758e-38 0)
(9.67104e-40 3.32552e-38 0)
(-9.02411e-40 3.32718e-38 0)
(-1.04169e-39 -1.37908e-38 0)
(3.01832e-41 -1.98648e-38 0)
(1.60813e-39 -2.17886e-38 0)
(2.86671e-39 -3.14221e-38 0)
(3.80302e-39 1.72544e-38 0)
(3.20763e-39 4.67257e-38 0)
(2.27142e-39 -1.3416e-38 0)
(2.57382e-39 -3.07029e-38 0)
(1.47795e-39 1.37935e-38 0)
(1.60813e-39 1.73234e-38 0)
(1.41889e-39 2.23626e-39 0)
(1.87069e-40 3.41764e-40 0)
(2.94385e-41 3.26893e-41 0)
(2.89893e-42 3.34288e-42 0)
(3.02766e-43 2.70523e-43 0)
(2.49967e-44 2.22994e-44 0)
(2.08831e-45 1.59228e-45 0)
(1.61943e-46 1.05827e-46 0)
(1.6256e-46 -1.06287e-46 0)
(2.09842e-45 -1.5991e-45 0)
(2.51369e-44 -2.24052e-44 0)
(3.04701e-43 -2.72001e-43 0)
(2.92182e-42 -3.36357e-42 0)
(2.9716e-41 -3.29373e-41 0)
(1.89661e-40 -3.44833e-40 0)
(1.44538e-39 -2.26557e-39 0)
(1.76515e-39 -1.76319e-38 0)
(2.70396e-39 -1.56813e-38 0)
(2.70396e-39 1.56813e-38 0)
(1.76513e-39 1.76319e-38 0)
(1.44513e-39 2.26537e-39 0)
(1.86229e-40 3.42129e-40 0)
(-1.0488e-41 -4.60063e-42 0)
(-4.80714e-40 -4.41791e-40 0)
(-4.45845e-39 -5.45833e-39 0)
(-4.51981e-38 -5.13907e-38 0)
(-2.62401e-37 -5.36958e-37 0)
(-2.03035e-36 -3.24767e-36 0)
(-2.50677e-38 -1.57096e-37 0)
(1.18093e-38 -3.67783e-38 0)
(3.00217e-39 -2.64614e-38 0)
(1.75748e-39 -4.55849e-39 0)
(5.00037e-41 3.032e-39 0)
(2.52151e-40 3.471e-39 0)
(2.42588e-40 -1.45365e-39 0)
(4.54928e-41 -2.11384e-39 0)
(1.25053e-40 -2.32364e-39 0)
(-9.02404e-41 -3.31691e-39 0)
(-2.56304e-40 1.82532e-39 0)
(2.90787e-40 4.9289e-39 0)
(4.98584e-40 -1.40606e-39 0)
(-3.77958e-41 -3.23516e-39 0)
(-1.91699e-40 1.44903e-39 0)
(1.25017e-40 1.83338e-39 0)
(1.46514e-40 2.45547e-40 0)
(1.9985e-41 3.87855e-41 0)
(3.25362e-42 3.8192e-42 0)
(3.27052e-43 3.98339e-43 0)
(3.47369e-44 3.2855e-44 0)
(2.90552e-45 2.74111e-45 0)
(2.45064e-46 1.98171e-46 0)
(1.91672e-47 1.32658e-47 0)
(1.92408e-47 -1.33242e-47 0)
(2.46266e-46 -1.99034e-46 0)
(2.9221e-45 -2.75437e-45 0)
(3.49638e-44 -3.30389e-44 0)
(3.29709e-43 -4.0088e-43 0)
(3.28542e-42 -3.84929e-42 0)
(2.02768e-41 -3.91505e-41 0)
(1.49435e-40 -2.48962e-40 0)
(1.41679e-40 -1.86828e-39 0)
(-6.58264e-41 -1.65499e-39 0)
(-6.58354e-41 1.65499e-39 0)
(1.4153e-40 1.8682e-39 0)
(1.47371e-40 2.47633e-40 0)
(-8.35494e-42 2.05782e-41 0)
(-3.35836e-40 -2.56744e-40 0)
(-4.15191e-39 -3.1302e-39 0)
(-3.89724e-38 -3.90648e-38 0)
(-4.05835e-37 -3.77204e-37 0)
(-2.4309e-36 -4.05647e-36 0)
(-1.94573e-35 -2.58381e-35 0)
(-2.20902e-37 -1.33256e-36 0)
(1.31479e-37 -3.29912e-37 0)
(2.94546e-38 -2.32537e-37 0)
(1.8624e-38 -2.90775e-38 0)
(2.34609e-39 -4.02583e-39 0)
(4.02334e-40 -4.85572e-41 0)
(7.19652e-41 -1.95593e-40 0)
(9.80233e-42 -2.27409e-40 0)
(1.04538e-41 -2.46761e-40 0)
(-2.31534e-41 -3.49916e-40 0)
(-4.84882e-41 1.92694e-40 0)
(2.58429e-41 5.19673e-40 0)
(5.68171e-41 -1.47694e-40 0)
(-1.48486e-41 -3.40818e-40 0)
(-3.10209e-41 1.5247e-40 0)
(1.01392e-41 1.93609e-40 0)
(1.38354e-41 2.64808e-41 0)
(1.94207e-42 4.30224e-42 0)
(3.23223e-43 4.31918e-43 0)
(3.31041e-44 4.57945e-44 0)
(3.55955e-45 3.82641e-45 0)
(3.01419e-46 3.22298e-46 0)
(2.56159e-47 2.34929e-47 0)
(2.02029e-48 1.58083e-48 0)
(2.02813e-48 -1.58785e-48 0)
(2.57432e-47 -2.35962e-47 0)
(3.03165e-46 -3.23878e-46 0)
(3.58326e-45 -3.84821e-45 0)
(3.33796e-44 -4.6093e-44 0)
(3.26477e-43 -4.35418e-43 0)
(1.97156e-42 -4.34416e-42 0)
(1.41249e-41 -2.68663e-41 0)
(1.17506e-41 -1.97472e-40 0)
(-1.91982e-41 -1.74559e-40 0)
(-1.92597e-41 1.74521e-40 0)
(1.07312e-41 1.96915e-40 0)
(-1.08806e-43 1.81257e-41 0)
(-1.97567e-40 -1.1914e-40 0)
(-2.39325e-39 -1.76435e-39 0)
(-2.98024e-38 -2.1582e-38 0)
(-2.86343e-37 -2.77465e-37 0)
(-3.06002e-36 -2.77005e-36 0)
(-1.91721e-35 -3.13641e-35 0)
(-1.5726e-34 -2.13627e-34 0)
(-1.45591e-36 -1.15256e-35 0)
(1.51244e-36 -2.62603e-36 0)
(3.13513e-37 -1.81808e-36 0)
(1.78385e-37 -2.20722e-37 0)
(2.18604e-38 -3.21597e-38 0)
(3.32474e-39 -2.96407e-39 0)
(3.21481e-40 -3.15699e-40 0)
(3.3369e-41 -4.54949e-41 0)
(3.53663e-42 -2.56008e-41 0)
(-2.48028e-42 -3.34701e-41 0)
(-5.38409e-42 1.83711e-41 0)
(2.33594e-42 4.94789e-41 0)
(5.6286e-42 -1.40016e-41 0)
(-1.79309e-42 -3.2426e-41 0)
(-3.35821e-42 1.4478e-41 0)
(8.74846e-43 1.84736e-41 0)
(1.28375e-42 2.58546e-42 0)
(1.83412e-43 4.28301e-43 0)
(3.10385e-44 4.37877e-44 0)
(3.22051e-45 4.69917e-45 0)
(3.49595e-46 3.97494e-46 0)
(2.98613e-47 3.37348e-47 0)
(2.55195e-48 2.47885e-48 0)
(2.02415e-49 1.67532e-49 0)
(2.03204e-49 -1.68282e-49 0)
(2.56473e-48 -2.48986e-48 0)
(3.00361e-47 -3.39023e-47 0)
(3.51955e-46 -3.99793e-46 0)
(3.24777e-45 -4.73041e-45 0)
(3.13576e-44 -4.41512e-44 0)
(1.86273e-43 -4.32599e-43 0)
(1.31142e-42 -2.62451e-42 0)
(1.02493e-42 -1.88579e-41 0)
(-2.29151e-42 -1.66346e-41 0)
(-2.69387e-42 1.64735e-41 0)
(-5.71327e-42 1.6436e-41 0)
(-9.38433e-41 -3.5712e-41 0)
(-1.35825e-39 -5.47228e-40 0)
(-1.65794e-38 -7.94535e-39 0)
(-2.12311e-37 -9.94053e-38 0)
(-2.09924e-36 -1.31823e-36 0)
(-2.34531e-35 -1.39403e-35 0)
(-1.54567e-34 -1.68432e-34 0)
(-1.34955e-33 -1.30981e-33 0)
(-5.14818e-36 -7.973e-35 0)
(2.02128e-35 -2.08767e-35 0)
(3.33571e-36 -1.55746e-35 0)
(1.4306e-36 -1.7939e-36 0)
(1.66809e-37 -2.51628e-37 0)
(2.4161e-38 -2.2507e-38 0)
(2.2531e-39 -2.20517e-39 0)
(2.27401e-40 -1.7339e-40 0)
(1.82844e-41 -1.59877e-41 0)
(1.24238e-42 -4.05623e-42 0)
(-3.88197e-43 1.64145e-42 0)
(2.07295e-43 4.5899e-42 0)
(4.97774e-43 -1.29654e-42 0)
(-1.6732e-43 -3.00912e-42 0)
(-3.05039e-43 1.34196e-42 0)
(7.32365e-44 1.71762e-42 0)
(1.11048e-43 2.4406e-43 0)
(1.61377e-44 4.10281e-44 0)
(2.76333e-45 4.24722e-45 0)
(2.90253e-46 4.59833e-46 0)
(3.17379e-47 3.92222e-47 0)
(2.73334e-48 3.34581e-48 0)
(2.34648e-49 2.47127e-49 0)
(1.87137e-50 1.67449e-50 0)
(1.87868e-50 -1.68203e-50 0)
(2.35826e-49 -2.48233e-49 0)
(2.74936e-48 -3.36259e-48 0)
(3.19519e-47 -3.94521e-47 0)
(2.92691e-46 -4.62945e-46 0)
(2.79115e-45 -4.28338e-45 0)
(1.6374e-44 -4.14546e-44 0)
(1.13116e-43 -2.47962e-43 0)
(7.95793e-44 -1.75659e-42 0)
(-3.30248e-43 -1.58397e-42 0)
(-2.11283e-42 8.49783e-43 0)
(-3.00226e-41 -9.42106e-42 0)
(-4.2992e-40 -1.80184e-40 0)
(-6.22979e-39 -2.61856e-39 0)
(-7.764e-38 -3.9149e-38 0)
(-1.01894e-36 -5.03558e-37 0)
(-1.04849e-35 -7.07537e-36 0)
(-1.21806e-34 -8.03085e-35 0)
(-8.67568e-34 -1.09165e-33 0)
(-7.86289e-33 -9.85873e-33 0)
(1.06516e-34 -7.54747e-34 0)
(3.07115e-34 -1.48386e-34 0)
(4.4126e-35 -1.00906e-34 0)
(1.50131e-35 -1.11408e-35 0)
(1.61249e-36 -1.44053e-36 0)
(2.22558e-37 -1.2379e-37 0)
(1.98835e-38 -1.16115e-38 0)
(1.96015e-39 -8.81803e-40 0)
(1.53029e-40 -6.95186e-41 0)
(1.2351e-41 -4.96581e-42 0)
(8.3306e-43 -2.22885e-43 0)
(7.28785e-44 2.67255e-43 0)
(3.47285e-44 -8.2321e-44 0)
(-1.03578e-44 -1.88608e-43 0)
(-1.91288e-44 8.4001e-44 0)
(4.44523e-45 1.07824e-43 0)
(6.84036e-45 1.55663e-44 0)
(1.00375e-45 2.67143e-45 0)
(1.73124e-46 2.80791e-46 0)
(1.83116e-47 3.08321e-47 0)
(2.00992e-48 2.66107e-48 0)
(1.73822e-49 2.29208e-49 0)
(1.4946e-50 1.70766e-50 0)
(1.19431e-51 1.16435e-51 0)
(1.19758e-51 -1.16963e-51 0)
(1.49885e-50 -1.71534e-50 0)
(1.74136e-49 -2.30362e-49 0)
(2.00853e-48 -2.67668e-48 0)
(1.81608e-47 -3.10396e-47 0)
(1.68784e-46 -2.83131e-46 0)
(9.02664e-46 -2.69783e-45 0)
(4.80197e-45 -1.57832e-44 0)
(-3.33312e-44 -1.09615e-43 0)
(-6.85866e-43 -8.65928e-44 0)
(-1.08568e-41 2.69251e-43 0)
(-1.75245e-40 2.81202e-42 0)
(-2.54668e-39 4.11191e-41 0)
(-3.80006e-38 5.46451e-40 0)
(-4.85148e-37 6.18189e-39 0)
(-6.66091e-36 1.45723e-38 0)
(-7.10886e-35 -1.85819e-36 0)
(-8.90877e-34 -8.17914e-35 0)
(-6.74629e-33 -2.15487e-33 0)
(-7.15046e-32 -3.97462e-32 0)
(4.54787e-33 -4.94437e-33 0)
(7.24565e-33 -1.4898e-33 0)
(7.65689e-34 -1.20695e-33 0)
(1.44507e-34 -1.16989e-34 0)
(1.36302e-35 -1.47543e-35 0)
(1.62987e-36 -1.19723e-36 0)
(1.375e-37 -1.10489e-37 0)
(1.28136e-38 -8.12156e-39 0)
(9.718e-40 -6.31358e-40 0)
(7.64554e-41 -4.25252e-41 0)
(5.25835e-42 -2.90671e-42 0)
(3.64582e-43 -1.64368e-43 0)
(2.44437e-44 -1.57523e-44 0)
(9.05941e-46 -1.13117e-44 0)
(-8.61814e-46 4.71232e-45 0)
(2.21483e-46 6.108e-45 0)
(3.36408e-46 8.90013e-46 0)
(4.99153e-47 1.53117e-46 0)
(8.70899e-48 1.61811e-47 0)
(9.30256e-49 1.77724e-48 0)
(1.02903e-49 1.53752e-49 0)
(8.96374e-51 1.32281e-50 0)
(7.74663e-52 9.85746e-52 0)
(6.22434e-53 6.70842e-53 0)
(6.29352e-53 -6.71655e-53 0)
(7.88989e-52 -9.85303e-52 0)
(9.24074e-51 -1.31859e-50 0)
(1.08302e-49 -1.52306e-49 0)
(1.0331e-48 -1.73968e-48 0)
(1.06683e-47 -1.53103e-47 0)
(8.59376e-47 -1.34676e-46 0)
(9.92541e-46 -5.2387e-46 0)
(1.15911e-44 8.21275e-46 0)
(1.93378e-43 1.18728e-43 0)
(3.10506e-42 2.15191e-42 0)
(4.90867e-41 3.45063e-41 0)
(7.08399e-40 5.47326e-40 0)
(1.02587e-38 7.69381e-39 0)
(1.30191e-37 1.00973e-37 0)
(1.71313e-36 7.52119e-37 0)
(1.8213e-35 -8.62037e-36 0)
(2.13922e-34 -7.21314e-34 0)
(1.62763e-33 -2.23882e-32 0)
(1.53439e-32 -4.99865e-31 0)
(1.06225e-31 -6.52392e-32 0)
(1.19631e-31 -4.61229e-33 0)
(9.18978e-33 -2.1906e-34 0)
(1.70194e-33 -7.83928e-36 0)
(1.43754e-34 -1.75686e-37 0)
(1.69071e-35 -3.09569e-41 0)
(1.35193e-36 4.19514e-40 0)
(1.24267e-37 3.59709e-41 0)
(9.13435e-39 2.69294e-42 0)
(7.10684e-40 1.69084e-43 0)
(4.79e-41 1.09765e-44 0)
(3.2845e-42 1.43284e-45 0)
(2.0395e-43 -1.9423e-46 0)
(1.25899e-44 -5.33685e-46 0)
(6.77314e-46 2.38223e-46 0)
(5.21318e-47 3.07174e-46 0)
(1.93123e-47 4.52652e-47 0)
(2.67286e-48 7.85721e-48 0)
(4.52901e-49 8.37856e-49 0)
(4.82426e-50 9.25762e-50 0)
(5.32043e-51 8.0596e-51 0)
(4.63805e-52 6.96025e-52 0)
(4.00336e-53 5.20789e-53 0)
(3.38704e-54 3.55012e-54 0)
(7.17149e-54 -3.5817e-54 0)
(1.28223e-52 -5.26547e-53 0)
(2.36622e-51 -7.07196e-52 0)
(4.53575e-50 -8.27292e-51 0)
(8.60079e-49 -9.67142e-50 0)
(1.65195e-47 -9.16298e-49 0)
(3.07045e-46 -9.3575e-48 0)
(5.65625e-45 -7.28953e-47 0)
(9.90353e-44 -8.15723e-46 0)
(1.70671e-42 -9.09167e-45 0)
(2.74849e-41 -1.52841e-43 0)
(4.38174e-40 -2.45359e-42 0)
(6.37247e-39 -3.89108e-41 0)
(9.33694e-38 -5.29702e-40 0)
(1.19717e-36 -6.28251e-39 0)
(1.60233e-35 -1.02355e-38 0)
(1.7295e-34 2.2373e-36 0)
(2.089e-33 1.03836e-34 0)
(1.6363e-32 2.95812e-33 0)
(1.63743e-31 6.30638e-32 0)
(6.85117e-33 -6.4259e-32 0)
(6.07454e-33 -3.51516e-33 0)
(6.65202e-34 9.61804e-34 0)
(1.29587e-34 1.07862e-34 0)
(1.24752e-35 1.45075e-35 0)
(1.51658e-36 1.19335e-36 0)
(1.29338e-37 1.10644e-37 0)
(1.21586e-38 8.1408e-39 0)
(9.28041e-40 6.32897e-40 0)
(7.3401e-41 4.26133e-41 0)
(5.07082e-42 2.91906e-42 0)
(3.52146e-43 1.81076e-43 0)
(2.22471e-44 1.11833e-44 0)
(1.38941e-45 6.15884e-46 0)
(7.87481e-47 4.86467e-47 0)
(5.14983e-48 1.76906e-47 0)
(1.05721e-48 2.43743e-48 0)
(1.34858e-49 4.10767e-49 0)
(2.20247e-50 4.36708e-50 0)
(2.3376e-51 4.80766e-51 0)
(2.57258e-52 4.1872e-52 0)
(2.24735e-53 3.60929e-53 0)
(1.94029e-54 2.69934e-54 0)
(1.60097e-55 1.74335e-55 0)
(2.46399e-55 -4.05363e-55 0)
(3.87607e-54 -7.76805e-54 0)
(6.29057e-53 -1.4927e-52 0)
(1.06898e-51 -2.86348e-51 0)
(1.82293e-50 -5.63682e-50 0)
(3.18586e-49 -1.09048e-48 0)
(5.54069e-48 -2.11762e-47 0)
(9.37464e-47 -3.9625e-46 0)
(1.56496e-45 -7.33086e-45 0)
(2.42129e-44 -1.28555e-43 0)
(3.7223e-43 -2.22146e-42 0)
(5.03454e-42 -3.5694e-41 0)
(6.96501e-41 -5.65843e-40 0)
(7.64309e-40 -7.92349e-39 0)
(9.33821e-39 -1.02623e-37 0)
(6.2821e-38 -6.9599e-37 0)
(6.75961e-37 1.19988e-35 0)
(-4.17091e-36 8.44727e-34 0)
(-1.34851e-35 2.57241e-32 0)
(-1.86384e-33 5.68586e-31 0)
(1.39538e-33 -3.89077e-33 0)
(-3.46295e-34 -3.08286e-34 0)
(-1.29953e-35 6.57777e-35 0)
(6.47577e-36 9.14869e-36 0)
(9.45088e-37 1.29567e-36 0)
(1.56888e-37 1.14307e-37 0)
(1.51269e-38 1.08559e-38 0)
(1.57791e-39 8.29907e-40 0)
(1.27416e-40 6.56016e-41 0)
(1.05783e-41 4.52817e-42 0)
(7.53351e-43 3.14176e-43 0)
(5.36953e-44 1.98326e-44 0)
(3.45195e-45 1.23845e-45 0)
(2.1895e-46 7.08496e-47 0)
(1.27831e-47 4.69886e-48 0)
(7.67691e-49 9.66472e-49 0)
(7.84613e-50 1.23039e-49 0)
(7.91085e-51 1.99991e-50 0)
(1.12051e-51 2.11868e-51 0)
(1.14855e-52 2.32721e-52 0)
(1.23897e-53 2.03096e-53 0)
(1.07574e-54 1.75103e-54 0)
(8.93208e-56 1.31182e-55 0)
(-6.50317e-56 9.13859e-57 0)
(-1.65542e-54 -3.76274e-57 0)
(-3.7209e-53 -1.0279e-56 0)
(-8.0709e-52 1.02423e-54 0)
(-1.71103e-50 4.08056e-53 0)
(-3.48372e-49 1.0904e-51 0)
(-6.94618e-48 2.51576e-50 0)
(-1.32002e-46 5.35247e-49 0)
(-2.46555e-45 1.05237e-47 0)
(-4.33883e-44 2.0211e-46 0)
(-7.55613e-43 3.58758e-45 0)
(-1.21784e-41 6.40404e-44 0)
(-1.96743e-40 1.04259e-42 0)
(-2.85774e-39 1.79209e-41 0)
(-4.26228e-38 2.9397e-40 0)
(-5.43871e-37 6.09365e-39 0)
(-7.4635e-36 1.44752e-37 0)
(-7.96e-35 4.20147e-36 0)
(-9.97065e-34 1.14011e-34 0)
(-7.54372e-33 2.68811e-33 0)
(-7.99415e-32 4.67342e-32 0)
(9.85583e-35 -6.7164e-34 0)
(-3.96404e-35 -5.23341e-35 0)
(-3.14628e-36 3.39261e-36 0)
(1.69451e-37 7.48831e-37 0)
(4.80391e-38 1.38113e-37 0)
(1.00554e-38 1.35466e-38 0)
(1.06462e-39 1.41847e-39 0)
(1.17376e-40 1.14548e-40 0)
(9.88737e-42 9.50153e-42 0)
(8.42759e-43 6.76143e-43 0)
(6.15207e-44 4.81553e-44 0)
(4.45536e-45 3.09391e-45 0)
(2.91091e-46 1.96167e-46 0)
(1.8667e-47 1.14813e-47 0)
(1.10653e-48 6.92518e-49 0)
(6.56702e-50 7.12572e-50 0)
(5.23139e-51 7.19691e-51 0)
(4.46942e-52 1.01701e-51 0)
(5.49288e-53 1.04104e-52 0)
(5.39818e-54 1.12106e-53 0)
(5.6824e-55 9.72535e-55 0)
(4.89984e-56 8.3414e-56 0)
(4.59765e-57 6.57624e-57 0)
(1.01415e-56 8.70433e-57 0)
(2.24799e-55 1.9549e-55 0)
(5.0178e-54 4.4879e-54 0)
(1.08248e-52 1.00645e-52 0)
(2.27924e-51 2.17984e-51 0)
(4.61339e-50 4.61452e-50 0)
(9.12033e-49 9.38499e-49 0)
(1.7204e-47 1.86859e-47 0)
(3.17638e-46 3.5472e-46 0)
(5.53461e-45 6.61421e-45 0)
(9.48339e-44 1.16256e-43 0)
(1.50766e-42 2.02016e-42 0)
(2.37939e-41 3.25144e-41 0)
(3.38904e-40 5.23818e-40 0)
(4.88123e-39 7.60089e-39 0)
(6.04675e-38 1.13144e-37 0)
(7.85338e-37 1.45074e-36 0)
(7.98134e-36 2.0101e-35 0)
(9.11275e-35 2.23213e-34 0)
(6.33544e-34 2.92304e-33 0)
(5.62273e-33 2.49727e-32 0)
(1.09516e-35 -4.64635e-35 0)
(-5.2871e-36 -4.15626e-36 0)
(-4.66536e-37 7.1563e-38 0)
(-2.17987e-38 3.99656e-38 0)
(1.11929e-39 8.977e-39 0)
(6.04782e-40 9.58727e-40 0)
(7.58678e-41 1.05775e-40 0)
(9.31934e-42 8.90412e-42 0)
(8.30161e-43 7.58092e-43 0)
(7.38818e-44 5.52946e-44 0)
(5.54615e-45 4.00135e-45 0)
(4.10709e-46 2.61277e-46 0)
(2.72616e-47 1.67478e-47 0)
(1.77045e-48 9.93845e-49 0)
(1.0616e-49 5.91077e-50 0)
(6.2742e-51 4.73316e-51 0)
(4.17475e-52 4.05523e-52 0)
(2.97751e-53 4.98152e-53 0)
(2.93442e-54 4.89158e-54 0)
(2.63727e-55 5.14162e-55 0)
(2.62522e-56 4.42811e-56 0)
(2.46671e-57 3.7914e-57 0)
(6.31186e-57 6.6405e-58 0)
(1.44858e-55 9.27817e-57 0)
(3.32112e-54 2.19107e-55 0)
(7.43942e-53 5.02821e-54 0)
(1.6098e-51 1.12753e-52 0)
(3.40468e-50 2.4422e-51 0)
(6.9191e-49 5.17169e-50 0)
(1.37632e-47 1.0522e-48 0)
(2.61061e-46 2.09624e-47 0)
(4.86228e-45 3.98152e-46 0)
(8.53811e-44 7.43014e-45 0)
(1.48145e-42 1.30692e-43 0)
(2.38138e-41 2.27371e-42 0)
(3.82812e-40 3.6645e-41 0)
(5.54181e-39 5.9225e-40 0)
(8.20848e-38 8.65796e-39 0)
(1.04278e-36 1.31578e-37 0)
(1.41653e-35 1.7922e-36 0)
(1.50142e-34 2.81984e-35 0)
(1.85094e-33 4.1631e-34 0)
(1.38734e-32 7.27262e-33 0)
(1.428e-31 9.83061e-32 0)
(7.43272e-37 -5.0337e-36 0)
(-3.68989e-37 -4.53745e-37 0)
(-3.56436e-38 -2.13799e-38 0)
(-2.69879e-39 9.65681e-40 0)
(-4.78253e-41 5.47569e-40 0)
(2.7692e-41 6.87137e-41 0)
(4.21005e-42 8.42123e-42 0)
(5.6664e-43 7.49097e-43 0)
(5.30747e-44 6.65744e-44 0)
(4.87968e-45 4.99317e-45 0)
(3.75705e-46 3.69466e-46 0)
(2.83082e-47 2.45099e-47 0)
(1.90807e-48 1.59101e-48 0)
(1.25256e-49 9.54283e-50 0)
(7.59244e-51 5.64438e-51 0)
(4.50136e-52 3.7664e-52 0)
(2.79856e-53 2.69309e-53 0)
(1.81931e-54 2.65717e-54 0)
(1.52707e-55 2.388e-55 0)
(1.25838e-56 2.37391e-56 0)
(1.19344e-57 2.0007e-57 0)
(5.37866e-58 1.59534e-58 0)
(1.06936e-56 -2.03489e-58 0)
(2.52839e-55 -5.22591e-57 0)
(5.801e-54 -1.23595e-55 0)
(1.30046e-52 -2.83404e-54 0)
(2.81603e-51 -6.34859e-53 0)
(5.96132e-50 -1.37384e-51 0)
(1.21245e-48 -2.90577e-50 0)
(2.41444e-47 -5.90564e-49 0)
(4.58394e-46 -1.17479e-47 0)
(8.54938e-45 -2.22849e-46 0)
(1.50287e-43 -4.15023e-45 0)
(2.61222e-42 -7.28427e-44 0)
(4.20439e-41 -1.26099e-42 0)
(6.7744e-40 -2.00834e-41 0)
(9.82214e-39 -3.121e-40 0)
(1.45958e-37 -3.94277e-39 0)
(1.85777e-36 -3.20196e-38 0)
(2.53593e-35 7.42831e-37 0)
(2.69475e-34 4.91282e-35 0)
(3.34932e-33 1.82525e-33 0)
(2.52047e-32 4.95156e-32 0)
(2.63979e-31 1.02119e-30 0)
(6.29099e-38 -3.39079e-37 0)
(-3.1209e-38 -3.2805e-38 0)
(-3.0678e-39 -2.44296e-39 0)
(-3.28461e-40 -4.08856e-41 0)
(-1.63105e-41 2.53463e-41 0)
(5.85358e-43 3.82734e-42 0)
(1.97547e-43 5.12881e-43 0)
(3.28559e-44 4.79468e-44 0)
(3.34088e-45 4.40112e-45 0)
(3.2395e-46 3.38532e-46 0)
(2.57638e-47 2.54859e-47 0)
(1.98799e-48 1.71684e-48 0)
(1.36265e-49 1.12647e-49 0)
(9.05901e-51 6.82819e-51 0)
(5.54588e-52 4.04954e-52 0)
(3.30299e-53 2.52192e-53 0)
(1.9668e-54 1.64257e-54 0)
(1.19249e-55 1.38096e-55 0)
(8.57829e-57 1.13848e-56 0)
(6.33388e-58 1.06321e-57 0)
(5.44309e-59 8.60564e-59 0)
(1.77766e-59 -2.46822e-59 0)
(3.2845e-58 -7.93809e-58 0)
(7.7658e-57 -1.9237e-56 0)
(1.7822e-55 -4.55223e-55 0)
(3.99659e-54 -1.04455e-53 0)
(8.65675e-53 -2.34192e-52 0)
(1.83326e-51 -5.07182e-51 0)
(3.72982e-50 -1.07381e-49 0)
(7.43086e-49 -2.1843e-48 0)
(1.41131e-47 -4.35043e-47 0)
(2.63368e-46 -8.26086e-46 0)
(4.63168e-45 -1.54089e-44 0)
(8.05633e-44 -2.7085e-43 0)
(1.29734e-42 -4.70339e-42 0)
(2.09232e-41 -7.53756e-41 0)
(3.0355e-40 -1.19506e-39 0)
(4.51665e-39 -1.62709e-38 0)
(5.75317e-38 -1.93083e-37 0)
(7.8684e-37 -3.22832e-37 0)
(8.36931e-36 6.8373e-35 0)
(1.04354e-34 3.17736e-33 0)
(7.86456e-34 9.05405e-32 0)
(8.29179e-33 1.93039e-30 0)
(3.98704e-39 -2.8409e-38 0)
(-1.96767e-39 -2.7813e-39 0)
(-2.02316e-40 -2.94558e-40 0)
(-2.49553e-41 -1.44362e-41 0)
(-1.53675e-42 5.60671e-43 0)
(-2.84385e-44 1.80753e-43 0)
(6.937e-45 2.9806e-44 0)
(1.59223e-45 3.02241e-45 0)
(1.77721e-46 2.92493e-46 0)
(1.81522e-47 2.32365e-47 0)
(1.49126e-48 1.79134e-48 0)
(1.17602e-49 1.22711e-49 0)
(8.19827e-51 8.15364e-51 0)
(5.5153e-52 4.99074e-52 0)
(3.41137e-53 2.97242e-53 0)
(2.04398e-54 1.77147e-54 0)
(1.19687e-55 1.07531e-55 0)
(7.01468e-57 7.74699e-57 0)
(4.59091e-58 5.72521e-58 0)
(3.04332e-59 4.87e-59 0)
(-1.52386e-59 3.42198e-60 0)
(-4.39694e-58 -9.93009e-60 0)
(-1.06519e-56 -2.54789e-58 0)
(-2.52046e-55 -6.16796e-57 0)
(-5.7829e-54 -1.45872e-55 0)
(-1.29643e-52 -3.34533e-54 0)
(-2.80733e-51 -7.49517e-53 0)
(-5.94302e-50 -1.62219e-51 0)
(-1.20875e-48 -3.43166e-50 0)
(-2.40712e-47 -6.9755e-49 0)
(-4.5701e-46 -1.38788e-47 0)
(-8.52377e-45 -2.63313e-46 0)
(-1.49839e-43 -4.90501e-45 0)
(-2.60452e-42 -8.61095e-44 0)
(-4.19207e-41 -1.49144e-42 0)
(-6.75477e-40 -2.37824e-41 0)
(-9.79386e-39 -3.71124e-40 0)
(-1.45545e-37 -4.76751e-39 0)
(-1.85254e-36 -4.28512e-38 0)
(-2.52898e-35 6.67553e-37 0)
(-2.68741e-34 5.02447e-35 0)
(-3.34065e-33 1.90979e-33 0)
(-2.51402e-32 5.20998e-32 0)
(-2.63394e-31 1.07864e-30 0)
(2.82228e-40 -1.79257e-39 0)
(-1.38172e-40 -1.83272e-40 0)
(-1.43828e-41 -2.24177e-41 0)
(-2.02471e-42 -1.37094e-42 0)
(-1.4282e-43 -2.37555e-44 0)
(-7.2571e-45 6.41537e-45 0)
(-7.93014e-48 1.44787e-45 0)
(6.29513e-47 1.61015e-46 0)
(8.63866e-48 1.64085e-47 0)
(9.69742e-49 1.34642e-48 0)
(8.35922e-50 1.06079e-49 0)
(6.80399e-51 7.39031e-51 0)
(4.8435e-52 4.96913e-52 0)
(3.30743e-53 3.07278e-53 0)
(2.06842e-54 1.8409e-54 0)
(1.24814e-55 1.07841e-55 0)
(7.24135e-57 6.3232e-57 0)
(4.15094e-58 4.14411e-58 0)
(2.52439e-59 2.9652e-59 0)
(1.09988e-60 2.44291e-60 0)
(-1.07091e-59 7.80411e-61 0)
(-2.69104e-58 1.46711e-59 0)
(-6.51333e-57 3.65043e-58 0)
(-1.5402e-55 8.84255e-57 0)
(-3.5317e-54 2.09312e-55 0)
(-7.91152e-53 4.80422e-54 0)
(-1.71203e-51 1.07753e-52 0)
(-3.62104e-50 2.33439e-51 0)
(-7.35902e-49 4.94474e-50 0)
(-1.46388e-47 1.00626e-48 0)
(-2.77674e-46 2.00539e-47 0)
(-5.1718e-45 3.81001e-46 0)
(-9.08161e-44 7.11297e-45 0)
(-1.57577e-42 1.25153e-43 0)
(-2.53291e-41 2.1785e-42 0)
(-4.07163e-40 3.51254e-41 0)
(-5.89387e-39 5.6819e-40 0)
(-8.72956e-38 8.3159e-39 0)
(-1.10879e-36 1.26761e-37 0)
(-1.5061e-35 1.73835e-36 0)
(-1.59587e-34 2.7709e-35 0)
(-1.96732e-33 4.18152e-34 0)
(-1.47386e-32 7.42799e-33 0)
(-1.51783e-31 1.02147e-31 0)
(-2.02962e-35 1.05597e-30 0)
(1.35055e-41 -1.48344e-40 0)
(-6.58144e-42 -1.5419e-41 0)
(-7.04231e-43 -2.1781e-42 0)
(-1.04901e-43 -1.5497e-43 0)
(-7.88746e-45 -8.16308e-45 0)
(-4.91752e-46 -5.08603e-47 0)
(-1.35563e-47 6.27016e-47 0)
(1.78676e-48 8.85235e-48 0)
(3.22095e-49 1.00444e-48 0)
(3.95843e-50 8.70459e-50 0)
(3.55917e-51 7.10779e-51 0)
(2.97218e-52 5.07111e-52 0)
(2.15307e-53 3.46794e-53 0)
(1.48785e-54 2.17154e-54 0)
(9.39277e-56 1.31081e-55 0)
(5.70404e-57 7.5731e-57 0)
(3.31691e-58 3.88049e-58 0)
(2.23438e-59 2.56655e-59 0)
(1.38108e-60 4.4473e-59 0)
(-1.64409e-60 6.52566e-60 0)
(-1.65265e-60 1.55027e-60 0)
(-3.4986e-59 9.68533e-60 0)
(-8.43874e-58 2.3792e-58 0)
(-1.98987e-56 5.75843e-57 0)
(-4.55072e-55 1.3618e-55 0)
(-1.01576e-53 3.12294e-54 0)
(-2.19082e-52 6.99674e-53 0)
(-4.61223e-51 1.51429e-51 0)
(-9.33466e-50 3.20342e-50 0)
(-1.84564e-48 6.51164e-49 0)
(-3.48256e-47 1.29566e-47 0)
(-6.4343e-46 2.45837e-46 0)
(-1.12225e-44 4.58051e-45 0)
(-1.92592e-43 8.04666e-44 0)
(-3.06833e-42 1.39692e-42 0)
(-4.85632e-41 2.24689e-41 0)
(-6.94489e-40 3.61519e-40 0)
(-1.00526e-38 5.24152e-39 0)
(-1.25474e-37 7.78784e-38 0)
(-1.64341e-36 9.97261e-37 0)
(-1.69479e-35 1.37734e-35 0)
(-1.96001e-34 1.52487e-34 0)
(-1.40049e-33 1.98528e-33 0)
(-1.2531e-32 1.68625e-32 0)
(-1.83383e-36 1.69016e-31 0)
(-4.90145e-41 -3.86558e-40 0)
(2.38507e-41 -4.00437e-41 0)
(2.55746e-42 -5.58199e-42 0)
(3.85357e-43 -3.91626e-43 0)
(2.92673e-44 -1.94228e-44 0)
(1.88089e-45 4.35863e-47 0)
(5.83779e-47 1.81167e-46 0)
(-5.59724e-48 2.44801e-47 0)
(-1.0999e-48 2.73161e-48 0)
(-1.38327e-49 2.34795e-49 0)
(-1.25553e-50 1.90765e-50 0)
(-1.05447e-51 1.35638e-51 0)
(-7.66549e-53 9.25424e-53 0)
(-5.31009e-54 5.78387e-54 0)
(-3.35815e-55 3.47084e-55 0)
(-2.03896e-56 1.93079e-56 0)
(-1.14409e-57 -1.2622e-58 0)
(3.33695e-59 5.19944e-59 0)
(3.97895e-60 1.16788e-57 0)
(-4.65886e-59 1.73413e-58 0)
(-7.19857e-60 3.1782e-59 0)
(-6.48929e-60 4.69205e-60 0)
(-1.26284e-58 3.14432e-59 0)
(-2.98337e-57 7.50219e-58 0)
(-6.84103e-56 1.76906e-56 0)
(-1.5304e-54 4.04604e-55 0)
(-3.30695e-53 9.03196e-54 0)
(-6.97106e-52 1.94826e-52 0)
(-1.41197e-50 4.10216e-51 0)
(-2.79192e-49 8.3037e-50 0)
(-5.26438e-48 1.64214e-48 0)
(-9.71026e-47 3.0993e-47 0)
(-1.68875e-45 5.72783e-46 0)
(-2.88615e-44 9.99369e-45 0)
(-4.56933e-43 1.71574e-43 0)
(-7.17477e-42 2.73488e-42 0)
(-1.01374e-40 4.33133e-41 0)
(-1.44668e-39 6.20029e-40 0)
(-1.76454e-38 8.98879e-39 0)
(-2.25425e-37 1.12595e-37 0)
(-2.22013e-36 1.48446e-36 0)
(-2.46663e-35 1.55682e-35 0)
(-1.60733e-34 1.84015e-34 0)
(-1.39907e-33 1.38387e-33 0)
(-2.17422e-37 1.23307e-32 0)
(-8.49304e-40 -5.44978e-39 0)
(4.15727e-40 -5.57276e-40 0)
(4.33008e-41 -6.84583e-41 0)
(6.07308e-42 -4.20749e-42 0)
(4.27181e-43 -7.82259e-44 0)
(2.12857e-44 1.89348e-44 0)
(-3.48822e-47 4.34639e-45 0)
(-1.96464e-46 4.8519e-46 0)