/*--------------------------------*- C++ -*----------------------------------*\
| =========                 |                                                 |
| \\      /  F ield         | OpenFOAM: The Open Source CFD Toolbox           |
|  \\    /   O peration     | Version:  2.4.0                                 |
|   \\  /    A nd           | Web:      www.OpenFOAM.org                      |
|    \\/     M anipulation  |                                                 |
\*---------------------------------------------------------------------------*/
FoamFile
{
    version     2.0;
    format      ascii;
    class       surfaceScalarField;
    location    "0.8";
    object      phi;
}
// * * * * * * * * * * * * * * * * * * * * * * * * * * * * * * * * * * * * * //

dimensions      [0 3 -1 0 0 0 0];

internalField   nonuniform List<scalar> 
3742
(
-2.79995e-36
1.65785e-36
-4.56941e-37
2.20907e-37
-6.17621e-38
2.91547e-38
-8.15726e-39
3.36254e-39
-9.64558e-40
3.78635e-40
-1.09977e-40
3.93122e-41
-1.16275e-41
3.95616e-42
-1.1829e-42
3.75461e-43
-1.13678e-43
3.44752e-44
-1.05273e-44
3.02185e-45
-9.31101e-46
2.56465e-46
-7.9556e-47
2.09358e-47
-6.52535e-48
1.65756e-48
-3.36006e-49
1.25818e-49
2.41013e-48
-4.48276e-51
3.13999e-47
-1.76049e-49
3.89122e-46
-2.19642e-48
4.63694e-45
-2.65812e-47
5.33203e-44
-3.14353e-46
5.86307e-43
-3.60178e-45
6.20909e-42
-4.02144e-44
6.23316e-41
-4.31703e-43
6.0185e-40
-4.50123e-42
5.4309e-39
-4.46231e-41
-4.28693e-40
-3.45683e-34
4.22442e-36
-1.57765e-33
2.81034e-35
-1.36468e-33
1.55883e-34
-3.9379e-32
2.36971e-35
2.53613e-32
-3.01902e-34
1.29613e-32
-6.89177e-35
-1.20087e-32
1.86427e-34
5.53509e-34
1.38402e-35
5.75883e-34
-1.07518e-34
1.44183e-32
-7.08518e-35
1.90455e-33
-2.28353e-35
1.50116e-32
-1.59718e-34
1.4303e-33
1.33096e-37
1.41126e-32
6.07906e-35
-1.25698e-32
6.31304e-35
1.2721e-32
1.99847e-35
-1.34734e-32
5.25001e-35
-3.96369e-34
2.539e-37
-5.03976e-34
-5.05551e-35
-1.13246e-34
-9.03414e-36
-1.61077e-35
-1.65785e-36
-2.5216e-36
-2.20907e-37
-3.23865e-37
-2.91547e-38
-4.16179e-38
-3.36254e-39
-4.78029e-39
-3.78635e-40
-5.34764e-40
-3.93122e-41
-5.54827e-41
-3.95616e-42
-5.56639e-42
-3.75461e-43
-5.2783e-43
-3.44752e-44
-4.83633e-44
-3.02185e-45
-4.23472e-45
-2.56465e-46
-3.58797e-46
-2.09359e-47
-2.92549e-47
-1.65841e-48
-2.28325e-48
-1.35935e-49
2.57087e-49
-1.11542e-49
5.91667e-48
-1.10626e-48
7.67583e-47
-1.15709e-47
9.43381e-46
-1.15726e-46
1.10416e-44
-1.12355e-45
1.2264e-43
-1.04097e-44
1.29889e-42
-9.49146e-44
1.29787e-41
-8.29913e-43
1.23618e-40
-7.32914e-42
1.09734e-39
-6.26396e-41
-5.52442e-40
-5.37802e-35
5.53037e-36
-2.30274e-34
3.31137e-35
-1.16003e-33
1.78634e-34
-1.30001e-33
2.64338e-35
5.21001e-34
-3.45524e-34
9.41833e-34
-7.93869e-35
-1.63582e-34
2.12909e-34
-2.36218e-34
1.61661e-35
4.08386e-34
-1.23194e-34
8.37807e-34
-8.11258e-35
9.22277e-34
-2.05313e-35
9.22972e-34
-9.00786e-36
8.51931e-34
6.42128e-36
4.71204e-34
7.04149e-35
7.6985e-35
7.26712e-35
-5.27427e-35
2.34352e-35
-3.76261e-34
6.01689e-35
-3.79061e-34
3.02854e-37
-7.36219e-35
-5.78686e-35
-1.76167e-35
-1.05839e-35
-2.79995e-36
-1.95759e-36
-4.56941e-37
-2.6332e-37
-6.17621e-38
-3.49206e-38
-8.15726e-39
-4.04887e-39
-9.64558e-40
-4.57468e-40
-1.09977e-40
-4.76628e-41
-1.16275e-41
-4.80877e-42
-1.1829e-42
-4.57528e-43
-1.13678e-43
-4.20946e-44
-1.05273e-44
-3.69682e-45
-9.31101e-46
-3.14255e-46
-7.95581e-47
-2.56932e-47
-6.55054e-48
-2.04293e-48
-6.40641e-49
-2.24492e-49
-1.20403e-48
-7.68545e-49
-1.04411e-47
-7.9777e-48
-8.66389e-47
-8.04562e-47
-6.28464e-46
-7.62611e-46
-3.87349e-45
-6.87488e-45
-1.45341e-44
-5.69561e-44
3.52919e-44
-4.45218e-43
1.67182e-42
-3.05698e-42
2.19854e-41
-1.96047e-41
2.23555e-40
-9.88468e-41
-4.70424e-40
-7.97919e-36
4.53165e-36
-2.23174e-35
7.03458e-36
-8.03522e-35
2.73204e-35
-8.70292e-35
3.29591e-36
3.06063e-35
-5.07294e-35
5.99632e-35
-1.22056e-35
-6.89802e-36
3.07758e-35
-1.04083e-35
2.71096e-36
3.11434e-35
-1.8283e-35
6.21851e-35
-1.25407e-35
7.02572e-35
-3.53789e-36
6.89276e-35
-5.74641e-36
6.23142e-35
1.14182e-36
3.60259e-35
1.06644e-35
7.40857e-36
1.10909e-35
-3.96074e-36
4.04594e-36
-2.62767e-35
8.9318e-36
-2.67205e-35
5.85672e-38
-6.88873e-36
-8.5101e-36
-2.40445e-36
-1.81567e-36
-4.44147e-37
-3.55236e-37
-8.17686e-38
-5.06812e-38
-1.18468e-38
-6.94507e-39
-1.65031e-39
-8.31693e-40
-2.02373e-40
-9.60196e-41
-2.37404e-41
-1.02115e-41
-2.56404e-42
-1.04602e-42
-2.65328e-43
-1.00945e-43
-2.58421e-44
-9.39217e-45
-2.41932e-45
-8.33463e-46
-2.1587e-46
-7.14629e-47
-1.85876e-47
-5.89276e-48
-1.64495e-48
-5.11558e-49
-1.26693e-48
-5.15786e-49
-1.14719e-47
-5.34313e-48
-1.07876e-46
-5.66761e-47
-9.61635e-46
-5.76277e-46
-7.87184e-45
-5.51531e-45
-6.02736e-44
-5.02653e-44
-4.04417e-43
-4.21884e-43
-2.47741e-42
-3.34243e-42
-1.16923e-41
-2.32746e-41
-4.63087e-41
-1.50173e-40
-5.6397e-41
-7.42845e-40
-3.18277e-39
-9.23191e-36
6.4823e-36
-8.03887e-36
5.3221e-36
-5.24217e-36
5.29677e-36
-4.43117e-36
6.2276e-37
1.0307e-36
-7.91511e-36
2.51306e-36
-1.93787e-36
-9.95041e-39
4.77684e-36
6.29694e-38
4.31986e-37
1.86473e-36
-2.8694e-36
3.49666e-36
-2.01056e-36
4.07818e-36
-6.30721e-37
3.87087e-36
-1.1088e-36
3.40546e-36
1.49775e-37
2.10277e-36
1.67902e-36
5.47248e-37
1.76385e-36
-1.83793e-37
6.6948e-37
-1.32662e-36
1.40737e-36
-1.3777e-36
1.08891e-38
-4.88289e-37
-1.33244e-36
-2.43691e-37
-2.98091e-37
-5.11562e-38
-6.25449e-38
-1.02121e-38
-9.36431e-39
-1.56096e-39
-1.34082e-39
-2.2544e-40
-1.65848e-40
-2.84435e-41
-1.96596e-41
-3.40674e-42
-2.13352e-42
-3.74452e-43
-2.22135e-43
-3.92788e-44
-2.17167e-44
-3.87122e-45
-2.04197e-45
-3.65906e-46
-1.82771e-46
-3.29334e-47
-1.57838e-47
-2.93582e-48
-1.33096e-48
-1.14895e-48
-3.80545e-49
-9.65443e-48
-3.21957e-48
-9.74126e-47
-3.60671e-47
-9.26562e-46
-3.86491e-46
-8.3677e-45
-3.97536e-45
-6.95903e-44
-3.85676e-44
-5.4361e-43
-3.57369e-43
-3.74426e-42
-3.06036e-42
-2.37647e-41
-2.486e-41
-1.18833e-40
-1.78555e-40
-5.20681e-40
-1.19656e-39
-1.08221e-39
-6.19654e-39
-2.78887e-38
-1.7601e-34
9.30029e-35
-1.11481e-35
6.8546e-36
-8.45698e-36
3.85045e-37
-1.84416e-36
-4.55135e-38
-2.98077e-37
-9.26568e-37
-5.39287e-38
-2.288e-37
4.2574e-38
5.38329e-37
9.40081e-38
5.09019e-38
9.45767e-38
-3.28148e-37
1.46183e-37
-2.35179e-37
1.85609e-37
-8.02934e-38
1.51564e-37
-1.36237e-37
1.20466e-37
1.51288e-38
9.50447e-38
1.93123e-37
3.91696e-38
2.04639e-37
4.82568e-40
8.13985e-38
-3.28451e-38
1.61395e-37
-3.8802e-38
1.44923e-39
-3.25033e-38
-1.51803e-37
-2.58533e-38
-3.60265e-38
-5.97186e-39
-7.93997e-39
-1.27841e-39
-1.24032e-39
-2.03525e-40
-1.83406e-40
-3.03403e-41
-2.33122e-41
-3.9172e-42
-2.82061e-42
-4.77869e-43
-3.1151e-43
-5.3291e-44
-3.28776e-44
-5.65602e-45
-3.25252e-45
-5.62816e-46
-3.08754e-46
-5.36208e-47
-2.78694e-47
-4.90528e-48
-2.43176e-48
-9.90506e-49
-3.09784e-49
-6.3733e-48
-1.32984e-48
-6.75417e-47
-1.54269e-47
-6.8936e-46
-1.74803e-46
-6.63514e-45
-1.89428e-45
-6.07701e-44
-1.97363e-44
-5.14631e-43
-1.94687e-43
-4.10855e-42
-1.83884e-42
-2.91658e-41
-1.61629e-41
-1.9212e-40
-1.3523e-40
-1.02114e-39
-1.01344e-39
-4.85843e-39
-7.09631e-39
-1.29886e-38
-3.93397e-38
-1.85982e-37
-8.09829e-36
1.36095e-35
-6.97103e-36
1.26196e-35
-1.38192e-36
3.87831e-37
-2.99598e-37
-7.31894e-38
-5.96422e-38
-1.29656e-37
-2.17812e-38
-3.02097e-38
5.49617e-39
6.15911e-38
1.28415e-38
5.8787e-39
4.42171e-39
-3.81485e-38
3.77744e-39
-2.77943e-38
6.37468e-39
-1.0355e-38
2.43612e-39
-1.87874e-38
3.47003e-40
1.14926e-39
3.11838e-39
2.23993e-38
2.81288e-39
2.39787e-38
1.04693e-39
9.76137e-39
1.80318e-39
1.88146e-38
1.19606e-39
1.87133e-40
-2.14956e-39
-1.76117e-38
-2.46724e-39
-4.29756e-39
-6.09248e-40
-9.89467e-40
-1.36353e-40
-1.59492e-40
-2.23932e-41
-2.42623e-41
-3.41612e-42
-3.15171e-42
-4.49467e-43
-3.88209e-43
-5.56403e-44
-4.349e-44
-6.28316e-45
-4.64362e-45
-6.73579e-46
-4.63789e-46
-6.7616e-47
-4.4372e-47
-6.51424e-48
-4.03438e-48
-9.16282e-49
-3.91926e-49
-3.85059e-48
-5.31185e-49
-4.28034e-47
-6.17437e-48
-4.60544e-46
-7.31714e-47
-4.75546e-45
-8.38019e-46
-4.63989e-44
-9.19204e-45
-4.32112e-43
-9.7104e-44
-3.73455e-42
-9.73476e-43
-3.06055e-41
-9.37124e-42
-2.24791e-40
-8.42793e-41
-1.55227e-39
-7.25631e-40
-8.85079e-39
-5.63591e-39
-4.68991e-38
-4.14949e-38
-1.58122e-37
-2.45343e-37
-1.30414e-36
-3.98408e-37
2.65483e-34
-8.06902e-37
1.53059e-35
-1.86064e-37
1.4092e-36
-5.10907e-38
9.91199e-38
-1.07084e-38
-5.23389e-39
-3.58911e-39
-2.47713e-39
4.93936e-40
6.19349e-39
1.42222e-39
6.03348e-40
2.2418e-40
-3.83707e-39
-7.97749e-41
-2.84191e-39
1.10177e-40
-1.13577e-39
-3.53426e-40
-2.09449e-39
-5.19916e-40
6.56907e-41
1.63503e-41
2.25117e-39
2.28375e-40
2.43171e-39
1.52073e-40
1.01545e-39
4.08732e-40
1.89666e-39
3.4711e-40
2.06347e-41
-1.63326e-40
-1.76726e-39
-2.4137e-40
-4.45257e-40
-6.19129e-41
-1.05857e-40
-1.43031e-41
-1.75293e-41
-2.40095e-42
-2.72519e-42
-3.73004e-43
-3.60599e-43
-4.97936e-44
-4.50647e-44
-6.23782e-45
-5.11189e-45
-7.11387e-46
-5.51286e-46
-7.68846e-47
-5.55413e-47
-7.78009e-48
-5.3519e-48
-8.70277e-49
-4.93775e-49
-1.54269e-48
-1.02947e-49
-1.73761e-47
-7.7354e-49
-1.97515e-46
-9.5701e-48
-2.15007e-45
-1.14942e-46
-2.24986e-44
-1.33106e-45
-2.23344e-43
-1.48334e-44
-2.12215e-42
-1.58566e-43
-1.88532e-41
-1.6228e-42
-1.59616e-40
-1.58229e-41
-1.23094e-39
-1.46777e-40
-9.0179e-39
-1.28451e-39
-5.69159e-38
-1.05853e-38
-3.42158e-37
-8.02402e-38
-1.51959e-36
-5.46311e-37
-3.01478e-36
-2.14396e-36
-7.66618e-35
1.25791e-36
5.30961e-36
1.64378e-37
1.459e-36
1.28384e-38
2.18553e-37
-1.01129e-39
3.38254e-38
-7.2268e-40
4.23811e-39
-4.01775e-41
1.19329e-39
1.19539e-40
1.26892e-40
1.20679e-41
-3.75322e-40
-2.09707e-41
-2.86619e-40
-6.57624e-42
-1.23095e-40
-5.34323e-41
-2.38013e-40
-6.73993e-41
-4.24165e-43
-8.96032e-42
2.23378e-40
1.88608e-41
2.43698e-40
1.5664e-41
1.03385e-40
4.48803e-41
1.89508e-40
3.91607e-41
2.19818e-42
-1.30037e-41
-1.75973e-40
-2.18024e-41
-4.5189e-41
-5.75289e-42
-1.10277e-41
-1.35869e-42
-1.86261e-42
-2.32241e-43
-2.94727e-43
-3.66025e-44
-3.95593e-44
-4.94756e-45
-5.00265e-45
-6.26018e-46
-5.731e-46
-7.20228e-47
-6.23076e-47
-7.84297e-48
-6.32065e-48
-8.42416e-49
-6.13067e-49
-6.51645e-49
-6.48519e-50
-7.09238e-48
-1.21167e-49
-8.42696e-47
-1.52926e-48
-9.68156e-46
-1.94317e-47
-1.06612e-44
-2.39889e-46
-1.13038e-43
-2.84496e-45
-1.13901e-42
-3.27478e-44
-1.10153e-41
-3.59225e-43
-9.9868e-41
-3.83207e-42
-8.67323e-40
-3.85425e-41
-6.88677e-39
-3.81262e-40
-5.25633e-38
-3.51614e-39
-3.4652e-37
-3.28717e-38
-2.25743e-36
-2.7747e-37
-1.06816e-35
-2.37901e-36
-1.50489e-35
-1.06845e-35
4.45119e-36
-5.57908e-36
-1.23033e-36
-1.15849e-36
7.56825e-37
-2.69722e-37
1.54657e-37
-4.42059e-38
2.85286e-38
-7.22425e-39
3.8375e-39
-9.80879e-40
5.6023e-40
-1.17985e-40
6.36101e-41
-1.43434e-41
-2.84276e-41
-3.82809e-42
-2.58875e-41
-1.15197e-42
-1.20068e-41
-5.68871e-42
-2.38823e-41
-6.92491e-42
-6.10774e-43
-1.21359e-42
2.02786e-41
1.60846e-42
2.23257e-41
1.47077e-42
9.62828e-42
4.27476e-42
1.73044e-41
3.75576e-42
2.12436e-43
-1.09682e-42
-1.6017e-41
-1.94614e-42
-4.19813e-42
-5.2267e-43
-1.04526e-42
-1.25509e-43
-1.79637e-43
-2.17438e-44
-2.88303e-44
-3.46637e-45
-3.91809e-45
-4.73128e-46
-5.00433e-46
-6.03484e-47
-5.78338e-47
-6.99145e-48
-6.3324e-48
-7.68755e-49
-6.46405e-49
-1.23939e-49
-6.30559e-50
-5.98927e-49
-7.30496e-51
-7.39811e-48
-2.20058e-50
-8.95709e-47
-3.01388e-49
-1.0443e-45
-4.05376e-48
-1.17478e-44
-5.3318e-47
-1.26437e-43
-6.6906e-46
-1.30859e-42
-8.27626e-45
-1.28311e-41
-9.79355e-44
-1.20575e-40
-1.18747e-42
-1.05517e-39
-1.44943e-41
-8.81189e-39
-1.99598e-40
-6.58739e-38
-2.90888e-39
-4.62705e-37
-4.51597e-38
-2.54659e-36
-6.37289e-37
-1.21317e-35
-7.80697e-36
-7.04701e-35
-1.95709e-34
-5.23711e-36
-1.17856e-35
-1.66775e-36
-9.2059e-36
-9.98321e-37
-1.95134e-36
-1.68999e-37
-2.81558e-37
-2.89658e-38
-4.31881e-38
-3.82405e-39
-5.55638e-39
-4.91164e-40
-7.05969e-40
-5.65838e-41
-8.09985e-41
-9.49973e-42
-9.18127e-42
-3.06001e-42
-1.01499e-42
-1.22167e-42
-6.05136e-43
-2.37169e-42
-6.28485e-43
-1.15821e-43
-1.19053e-43
1.7968e-42
1.31133e-43
1.99757e-42
1.26098e-43
8.71609e-43
3.65623e-43
1.54565e-42
3.21562e-43
1.97982e-44
-8.93191e-44
-1.42712e-42
-1.62809e-43
-3.79341e-43
-4.44234e-44
-9.59916e-44
-1.08073e-44
-1.67156e-44
-1.8946e-45
-2.71359e-45
-3.04923e-46
-3.72396e-46
-4.19788e-47
-4.79484e-47
-5.39177e-48
-5.58e-48
-6.29375e-49
-6.14453e-49
-8.11874e-50
-6.2863e-50
-1.69248e-49
-3.73538e-51
-2.12345e-48
3.30396e-50
-2.68812e-47
4.51335e-49
-3.30129e-46
5.89057e-48
-3.90295e-45
7.43192e-47
-4.46622e-44
9.09135e-46
-4.88584e-43
1.06914e-44
-5.16663e-42
1.21462e-43
-5.16628e-41
1.30941e-42
-4.99655e-40
1.34083e-41
-4.4799e-39
1.22753e-40
-3.90161e-38
9.24229e-40
-3.00786e-37
2.48649e-39
-2.26693e-36
-8.37692e-38
-1.29442e-35
-2.37597e-36
-7.24995e-35
-3.80434e-35
-4.45044e-34
-1.02501e-35
-5.98315e-36
-6.13024e-36
-4.88201e-36
-1.25952e-36
-1.41549e-36
-2.89041e-37
-2.16957e-37
-4.67634e-38
-3.5256e-38
-7.54552e-39
-4.60084e-39
-1.02562e-39
-5.94843e-40
-1.34685e-40
-6.86155e-41
-1.59492e-41
-7.95899e-42
-1.82535e-42
-1.00334e-42
-1.97267e-43
-1.83323e-43
-6.35518e-44
-2.23132e-43
-5.51491e-44
-1.51582e-44
-1.07652e-44
1.49275e-43
1.04898e-44
1.67559e-43
1.04229e-44
7.39767e-44
3.01046e-44
1.29425e-43
2.64699e-44
1.72217e-45
-7.19386e-45
-1.19225e-43
-1.32935e-44
-3.21501e-44
-3.66935e-45
-8.24176e-45
-9.01986e-46
-1.4522e-45
-1.59592e-46
-2.38001e-46
-2.58834e-47
-3.29452e-47
-3.58787e-48
-4.27133e-48
-4.63389e-49
-5.00181e-49
-5.40541e-50
-5.5347e-50
-2.78128e-51
-5.56133e-51
4.24684e-50
1.47322e-51
5.60589e-49
2.81174e-50
7.05325e-48
3.78763e-49
8.59677e-47
4.94955e-48
1.00805e-45
6.25314e-47
1.14231e-44
7.66153e-46
1.23653e-43
9.02447e-45
1.29053e-42
1.0274e-43
1.27247e-41
1.11028e-42
1.20786e-40
1.14169e-41
1.06204e-39
1.05322e-40
8.98354e-39
8.10461e-40
6.72608e-38
2.59228e-39
4.80426e-37
-6.32534e-38
2.60843e-36
-1.91878e-36
1.27079e-35
-3.14906e-35
-3.78807e-34
-1.06694e-36
-9.91357e-35
-3.0438e-38
-7.02507e-36
-5.60842e-38
-7.90051e-37
-2.72978e-38
-7.72505e-38
-5.87265e-39
-8.49069e-39
-1.1436e-39
-9.56688e-40
-1.73272e-40
-1.1734e-40
-2.46048e-41
-1.36147e-41
-3.07322e-42
-1.57328e-42
-3.64633e-43
-1.8158e-43
-3.99879e-44
-2.57721e-44
-7.68762e-45
-2.07751e-44
-4.71048e-45
-1.76344e-45
-9.18388e-46
1.20486e-44
7.97383e-46
1.36655e-44
8.15792e-46
6.08882e-45
2.34399e-45
1.05469e-44
2.05933e-45
1.44571e-46
-5.52273e-46
-9.69793e-45
-1.03095e-45
-2.6435e-45
-2.87728e-46
-6.84856e-46
-7.13393e-47
-1.21796e-46
-1.27279e-47
-2.01161e-47
-2.07784e-48
-2.80391e-48
-2.89783e-49
-3.65569e-49
-3.74826e-50
-4.30241e-50
-2.58255e-51
-4.79089e-51
2.50871e-50
-6.42029e-52
3.44467e-49
-2.14992e-51
4.5095e-48
-2.91239e-50
5.70906e-47
-3.91603e-49
7.00919e-46
-5.11817e-48
8.2829e-45
-6.46721e-47
9.47338e-44
-7.92521e-46
1.03559e-42
-9.33624e-45
1.09421e-41
-1.06298e-43
1.09288e-40
-1.14848e-42
1.0556e-39
-1.17991e-41
9.44762e-39
-1.08489e-40
8.21133e-38
-8.25154e-40
6.31291e-37
-2.36524e-39
4.74296e-36
7.17726e-38
2.69716e-35
2.09161e-36
1.50319e-34
3.40288e-35
4.07091e-34
2.77841e-37
-8.26216e-36
-4.22399e-37
-4.58168e-36
-7.62585e-38
-4.75455e-37
-1.66847e-38
-3.95409e-38
-2.5109e-39
-3.2286e-39
-3.87338e-40
-2.79781e-40
-5.08525e-41
-2.90873e-41
-6.52476e-42
-3.16656e-42
-7.59154e-43
-3.56395e-43
-8.52014e-44
-3.89628e-44
-8.92635e-45
-4.59612e-45
-1.17677e-45
-1.97467e-45
-4.24161e-46
-1.92698e-46
-7.86407e-47
9.23586e-46
5.86887e-47
1.05974e-45
6.19118e-47
4.76503e-46
1.77299e-46
8.1734e-46
1.55658e-46
1.15086e-47
-4.1374e-47
-7.5028e-46
-7.78047e-47
-2.06723e-46
-2.19045e-47
-5.40229e-47
-5.46917e-48
-9.68862e-48
-9.82336e-49
-1.6107e-48
-1.61225e-49
-2.25901e-49
-2.25964e-50
-2.9596e-50
-2.93067e-51
-3.49948e-51
-1.52347e-52
-4.01586e-52
2.6558e-51
-2.0747e-52
3.60538e-50
-2.37906e-51
4.68531e-49
-3.28893e-50
5.88562e-48
-4.41947e-49
7.16126e-47
-5.77103e-48
8.38209e-46
-7.28533e-47
9.47786e-45
-8.91804e-46
1.02364e-43
-1.04934e-44
1.06528e-42
-1.19288e-43
1.04728e-41
-1.28622e-42
9.90062e-41
-1.31659e-41
8.66993e-40
-1.2014e-40
7.28666e-39
-8.93378e-40
5.42185e-38
-2.06272e-39
3.82502e-37
9.01386e-38
2.053e-36
2.46983e-36
9.63336e-36
3.92486e-35
4.57343e-34
-2.55695e-38
-8.33852e-36
2.92482e-38
-4.74837e-36
4.53131e-39
-4.69453e-37
5.51146e-40
-3.57194e-38
2.73947e-41
-2.29818e-39
-4.26518e-42
-1.35182e-40
-1.46383e-42
-8.49639e-42
-2.865e-43
-6.30933e-43
-4.27542e-44
-5.75676e-44
-5.68239e-45
-5.70631e-45
-6.72532e-46
-6.14915e-46
-9.52591e-47
-1.83116e-46
-3.30622e-47
-1.9449e-47
-6.16685e-48
6.86993e-47
4.15297e-48
7.98292e-47
4.50324e-48
3.61683e-47
1.28511e-47
6.15661e-47
1.12742e-47
8.85807e-49
-2.9729e-48
-5.64369e-47
-5.62962e-48
-1.56838e-47
-1.5982e-48
-4.12786e-48
-4.01414e-49
-7.45363e-49
-7.25394e-50
-1.24579e-49
-1.19605e-50
-1.75603e-50
-1.68802e-51
-2.30969e-51
-2.82013e-52
-2.73916e-52
-9.08089e-52
-2.89084e-53
-1.22479e-50
2.23339e-53
-1.65019e-49
3.64734e-52
-2.16127e-48
5.08688e-51
-2.73801e-47
6.88102e-50
-3.36415e-46
9.05269e-49
-3.97894e-45
1.15197e-47
-4.55551e-44
1.42375e-46
-4.98564e-43
1.69476e-45
-5.27513e-42
1.96172e-44
-5.27697e-41
2.18576e-43
-5.10683e-40
2.41167e-42
-4.58048e-39
2.64171e-41
-3.99196e-38
3.09756e-40
-3.0782e-37
3.89103e-39
-2.32145e-36
5.34725e-38
-1.3252e-35
7.05923e-37
-7.42403e-35
8.32303e-36
7.38735e-35
-3.38976e-37
-1.046e-34
4.23332e-37
-7.26956e-36
7.0521e-38
-6.65258e-37
1.31574e-38
-4.61213e-38
1.69607e-39
-2.30055e-39
2.21847e-40
-6.07872e-41
2.49745e-41
4.6835e-42
2.77159e-42
1.00614e-42
2.8182e-43
1.27502e-43
2.78959e-44
1.34597e-44
2.59616e-45
1.32732e-45
2.32702e-46
1.13725e-46
1.82806e-47
9.85576e-48
1.27482e-48
5.90174e-48
4.26161e-49
5.85303e-48
3.29176e-49
2.64028e-48
9.06787e-49
4.45038e-48
7.94392e-49
6.53301e-50
-2.08096e-49
-4.07394e-48
-3.96337e-49
-1.14168e-48
-1.13293e-49
-3.02266e-49
-2.8594e-50
-5.49194e-50
-5.19315e-51
-9.22114e-51
-8.59511e-52
-1.30564e-51
-1.22412e-52
-1.72296e-52
-3.01795e-53
-2.02076e-53
-2.04152e-52
2.22942e-54
-2.79252e-51
6.59257e-53
-3.74074e-50
9.40718e-52
-4.86671e-49
1.30231e-50
-6.12194e-48
1.74954e-49
-7.4609e-47
2.28405e-48
-8.74863e-46
2.88305e-47
-9.91379e-45
3.52951e-46
-1.07333e-43
4.15676e-45
-1.12033e-42
4.74006e-44
-1.1051e-41
5.16314e-43
-1.04924e-40
5.44563e-42
-9.23258e-40
5.43496e-41
-7.81061e-39
5.28847e-40
-5.8535e-38
4.81932e-39
-4.17453e-37
4.37569e-38
-2.26575e-36
3.61494e-37
-1.09004e-35
2.96632e-36
1.83786e-35
3.98462e-37
-5.64726e-36
-5.04614e-37
-4.20458e-36
-8.84373e-38
-3.76159e-37
-1.72429e-38
-2.32558e-38
-2.33713e-39
-4.42697e-40
-3.21475e-40
1.11282e-40
-3.81795e-41
2.45016e-41
-4.46686e-42
3.34952e-42
-4.79406e-43
4.05652e-43
-5.00298e-44
4.41818e-44
-4.91038e-45
4.57884e-45
-4.66818e-46
4.4512e-46
-4.24034e-47
4.16095e-47
-3.73607e-48
4.0632e-48
-2.92867e-49
7.25562e-49
-3.77881e-51
2.12676e-49
5.96049e-50
3.14868e-49
5.38374e-50
4.82676e-51
-1.40686e-50
-2.86018e-49
-2.69234e-50
-8.07186e-50
-7.74645e-51
-2.14747e-50
-1.9632e-51
-3.9219e-51
-3.58174e-52
-6.60958e-52
-5.94683e-53
-9.39322e-53
-8.45192e-54
-1.24146e-53
-1.43245e-54
-1.22946e-54
-4.68592e-54
3.64269e-54
-6.20533e-53
5.57116e-53
-8.18441e-52
7.93489e-52
-1.04556e-50
1.10022e-50
-1.28786e-49
1.4806e-49
-1.53046e-48
1.93672e-48
-1.74286e-47
2.44977e-47
-1.9058e-46
3.0064e-46
-1.97861e-45
3.54999e-45
-1.95982e-44
4.06095e-44
-1.81515e-43
4.43868e-43
-1.58854e-42
4.70243e-42
-1.26322e-41
4.71772e-41
-9.33022e-41
4.62606e-40
-5.87119e-40
4.25899e-39
-3.29986e-39
3.92821e-38
-1.30599e-38
3.31029e-37
-4.06777e-38
2.78017e-36
1.76227e-35
3.66352e-37
-5.50319e-36
-5.51116e-37
-9.18297e-37
-1.03415e-37
6.43465e-38
-2.26594e-38
2.91239e-38
-3.4163e-39
6.6591e-39
-5.23093e-40
1.00327e-39
-6.82573e-41
1.38844e-40
-8.69066e-42
1.6733e-41
-1.00456e-42
1.92628e-42
-1.11947e-43
2.0475e-43
-1.16478e-44
2.09064e-44
-1.16627e-45
2.01444e-45
-1.1072e-46
1.86946e-46
-1.01313e-47
1.65866e-47
-8.85683e-49
1.44475e-48
-7.36012e-50
1.29326e-49
-2.03485e-51
3.05122e-50
3.09069e-51
1.03677e-51
-9.62294e-52
-1.93342e-50
-1.78368e-51
-5.50462e-51
-5.15488e-52
-1.47117e-51
-1.31047e-52
-2.69969e-52
-2.39948e-53
-4.56443e-53
-3.94392e-54
-6.50939e-54
1.90851e-55
-8.80352e-55
1.09954e-53
-3.63763e-55
1.57233e-52
-3.90072e-54
2.17439e-51
-5.66121e-53
2.91877e-50
-8.01705e-52
3.80652e-49
-1.10491e-50
4.80212e-48
-1.47724e-49
5.87268e-47
-1.91802e-48
6.91461e-46
-2.40668e-47
7.87412e-45
-2.92556e-46
8.57516e-44
-3.41775e-45
9.01386e-43
-3.85432e-44
8.96734e-42
-4.13034e-43
8.60123e-41
-4.21948e-42
7.66381e-40
-3.92547e-41
6.57857e-39
-3.19702e-40
5.01934e-38
-1.67276e-39
3.64669e-37
5.73362e-39
2.02441e-36
3.50368e-37
9.8963e-36
5.77206e-36
6.12189e-35
-1.09272e-36
2.97018e-36
-2.763e-37
-1.88468e-36
-1.1665e-37
1.01043e-36
-4.28151e-38
2.14693e-37
-8.47401e-39
4.03512e-38
-1.57042e-39
5.51054e-39
-2.31638e-40
7.24888e-40
-3.2287e-41
8.39659e-41
-3.98161e-42
9.41631e-42
-4.66763e-43
9.7795e-43
-5.04955e-44
9.81292e-44
-5.22008e-45
9.30683e-45
-5.085e-46
8.52774e-46
-4.75549e-47
7.46809e-47
-4.24116e-48
6.32971e-48
-3.64528e-49
5.16906e-49
-2.98615e-50
4.22089e-50
-2.178e-51
3.1423e-51
-2.44888e-52
-1.04761e-51
-1.28098e-52
-3.48942e-52
-3.4222e-53
-9.68253e-53
-8.53999e-54
-1.79723e-53
-1.5474e-54
-3.05489e-54
-4.50697e-56
-4.42749e-55
3.19783e-54
-1.46414e-55
4.75014e-53
-1.36399e-54
6.79198e-52
-2.03425e-53
9.45835e-51
-2.97418e-52
1.27883e-49
-4.23186e-51
1.68109e-48
-5.86302e-50
2.1381e-47
-7.88268e-49
2.63895e-46
-1.02997e-47
3.13629e-45
-1.30115e-46
3.61115e-44
-1.5942e-45
3.97595e-43
-1.87831e-44
4.23775e-42
-2.14079e-43
4.27191e-41
-2.32238e-42
4.17514e-40
-2.41624e-41
3.78279e-39
-2.31129e-40
3.34329e-38
-1.99887e-39
2.61346e-37
-1.25961e-38
2.01427e-36
-1.26074e-38
1.17214e-35
1.53559e-36
6.84464e-35
3.10876e-35
4.08608e-34
-1.11649e-35
-9.57321e-35
-8.77009e-36
2.99958e-36
-1.76727e-36
1.32625e-36
-3.96371e-37
2.15232e-37
-6.27811e-38
3.59366e-38
-9.95177e-39
4.69552e-39
-1.33503e-39
6.06108e-40
-1.73587e-40
6.95353e-41
-2.03878e-41
7.76138e-42
-2.30213e-42
8.03185e-43
-2.42045e-43
8.04007e-44
-2.44597e-44
7.60834e-45
-2.33987e-45
6.95924e-46
-2.15612e-46
6.08412e-47
-1.89979e-47
5.14819e-48
-1.61695e-48
4.19334e-49
-1.32458e-49
3.32055e-50
-1.04985e-50
2.53118e-51
-8.10539e-52
1.05931e-52
-6.72711e-53
-9.99678e-54
-6.43534e-54
-5.37367e-54
-8.41372e-55
-1.10414e-54
-1.52203e-55
-1.94324e-55
-5.24692e-55
-2.93921e-56
-7.6011e-54
-2.29329e-56
-1.11099e-52
-2.95874e-55
-1.58089e-51
-4.44267e-54
-2.18999e-50
-6.51828e-53
-2.94444e-49
-9.30872e-52
-3.84627e-48
-1.29488e-50
-4.85896e-47
-1.74834e-49
-5.95085e-46
-2.29537e-48
-7.01404e-45
-2.91457e-47
-7.99752e-44
-3.59327e-46
-8.71454e-43
-4.26616e-45
-9.17095e-42
-4.92313e-44
-9.12226e-41
-5.46817e-43
-8.76259e-40
-6.01101e-42
-7.79955e-39
-6.56366e-41
-6.72262e-38
-7.67818e-40
-5.12781e-37
-9.65546e-39
-3.79587e-36
-1.3313e-37
-2.1308e-35
-1.7689e-36
-1.14574e-34
-2.10162e-35
-1.89412e-34
-2.33008e-34
2.26643e-34
-1.61592e-35
1.4911e-35
-1.14015e-35
3.64492e-37
-2.40987e-36
-9.34775e-38
-3.47013e-37
-2.91333e-38
-5.30476e-38
-4.40986e-39
-6.80965e-39
-6.01081e-40
-8.64419e-40
-7.01471e-41
-9.89806e-41
-7.86906e-42
-1.09899e-41
-8.14994e-43
-1.13635e-42
-8.1543e-44
-1.13414e-43
-7.71043e-45
-1.07207e-44
-7.04684e-46
-9.78478e-46
-6.15608e-47
-8.5438e-47
-5.20537e-48
-7.21663e-48
-4.23684e-49
-5.87021e-49
-3.34395e-50
-4.6294e-50
-2.55357e-51
-3.53257e-51
-1.94595e-52
-2.62318e-52
-1.51236e-53
-1.89772e-53
-1.35451e-54
-1.35771e-54
-1.38983e-55
-1.61389e-55
-1.63341e-56
-1.01127e-54
6.81345e-57
-1.50773e-53
1.39708e-55
-2.20781e-52
2.15125e-54
-3.14681e-51
3.22496e-53
-4.36718e-50
4.71555e-52
-5.88305e-49
6.71004e-51
-7.70158e-48
9.29702e-50
-9.75176e-47
1.25004e-48
-1.19747e-45
1.63342e-47
-1.41537e-44
2.06349e-46
-1.61919e-43
2.52793e-45
-1.77053e-42
2.97669e-44
-1.87136e-41
3.38587e-43
-1.86981e-40
3.64956e-42
-1.80689e-39
3.72452e-41
-1.61803e-38
3.35612e-40
-1.40728e-37
2.37341e-39
-1.08276e-36
1.81889e-39
-8.14323e-36
-3.39717e-37
-4.63567e-35
-8.4807e-36
-2.58761e-34
-1.32492e-34
-1.53807e-33
-1.16754e-35
1.25603e-34
-8.12513e-36
1.58657e-35
-1.65218e-36
3.26315e-37
-3.74212e-37
-1.16975e-37
-5.98153e-38
-3.46743e-38
-9.55351e-39
-5.2462e-39
-1.28888e-39
-7.16328e-40
-1.68341e-40
-8.39656e-41
-1.98408e-41
-9.45205e-42
-2.24673e-42
-9.82573e-43
-2.36768e-43
-9.85963e-44
-2.39729e-44
-9.34916e-45
-2.29706e-45
-8.56425e-46
-2.11966e-46
-7.498e-47
-1.86995e-47
-6.35186e-48
-1.59325e-48
-5.17907e-49
-1.30656e-49
-4.0945e-50
-1.03772e-50
-3.13083e-51
-7.97067e-52
-2.32926e-52
-5.94685e-53
-1.68652e-53
-4.30977e-54
-1.2021e-54
-3.03622e-55
-8.49857e-56
1.73954e-59
-5.87551e-57
3.24124e-55
3.69675e-57
4.88944e-54
6.53611e-56
7.16311e-53
1.00531e-54
1.02144e-51
1.50724e-53
1.41833e-50
2.20419e-52
1.91178e-49
3.13687e-51
2.50448e-48
4.3468e-50
3.17362e-47
5.84521e-49
3.90056e-46
7.63879e-48
4.61493e-45
9.6506e-47
5.28574e-44
1.18221e-45
5.78738e-43
1.39139e-44
6.12664e-42
1.57986e-43
6.13239e-41
1.69296e-42
5.93887e-40
1.69684e-41
5.33099e-39
1.4391e-40
4.65044e-38
7.73686e-40
3.58967e-37
-6.81533e-39
2.71023e-36
-3.10575e-37
1.5489e-35
-6.51175e-36
8.68523e-35
-9.68981e-35
-1.09149e-33
-1.65968e-36
1.83728e-35
4.42659e-37
1.04756e-35
1.45602e-38
8.55767e-37
-1.73348e-38
3.88938e-38
-5.03089e-39
-2.58298e-39
-1.1056e-39
-7.97869e-40
-1.77484e-40
-1.30029e-40
-2.61086e-41
-1.64121e-41
-3.3351e-42
-1.91729e-42
-4.01125e-43
-2.04648e-43
-4.42273e-44
-2.09185e-44
-4.6408e-45
-2.0159e-45
-4.57469e-46
-1.87063e-46
-4.32022e-47
-1.65706e-47
-3.88446e-48
-1.41763e-48
-3.36259e-49
-1.16634e-49
-2.79448e-50
-9.2929e-51
-2.2446e-51
-7.15663e-52
-1.74061e-52
-5.35265e-53
-1.30889e-53
-3.88658e-54
-9.54044e-55
-2.75377e-55
-6.36575e-56
-1.91101e-56
5.8978e-56
-1.81549e-57
9.79621e-55
-8.31015e-57
1.47155e-53
-1.29414e-55
2.15555e-52
-1.99e-54
3.07333e-51
-2.98478e-53
4.26683e-50
-4.36692e-52
5.75026e-49
-6.21786e-51
7.53136e-48
-8.62114e-50
9.5413e-47
-1.16004e-48
1.17236e-45
-1.51715e-47
1.38663e-44
-1.9185e-46
1.5876e-43
-2.35347e-45
1.73754e-42
-2.77707e-44
1.8385e-41
-3.1728e-43
1.83919e-40
-3.4577e-42
1.77999e-39
-3.63677e-41
1.59659e-38
-3.57771e-40
1.3916e-37
-3.3373e-39
1.07315e-36
-2.68955e-38
8.0954e-36
-1.77709e-37
4.62227e-35
-3.30134e-37
2.59169e-34
1.11529e-35
2.47975e-34
-1.80497e-37
1.26211e-34
1.46482e-37
9.56669e-36
2.47648e-38
9.2184e-37
2.12435e-39
6.72038e-38
-7.28674e-41
3.71174e-39
-7.34136e-41
1.28392e-40
-1.59943e-41
-4.65661e-42
-2.7438e-42
-1.5802e-42
-3.83463e-43
-2.36854e-43
-4.90043e-44
-2.8351e-44
-5.64555e-45
-3.11416e-45
-6.12285e-46
-3.15975e-46
-6.19601e-47
-3.05262e-47
-5.97519e-48
-2.79346e-48
-5.46714e-49
-2.45512e-49
-4.80162e-50
-2.06612e-50
-4.04024e-51
-1.67814e-51
-3.27969e-52
-1.31381e-52
-2.56684e-53
-9.96458e-54
-1.94553e-54
-7.31987e-55
-1.42908e-55
-5.22833e-56
-1.15981e-56
-3.64495e-57
-2.29459e-56
-4.28871e-58
-3.42448e-55
-2.94776e-57
-5.14238e-54
-4.6142e-56
-7.53372e-53
-7.09557e-55
-1.07433e-51
-1.06428e-53
-1.49184e-50
-1.55715e-52
-2.01098e-49
-2.21724e-51
-2.63462e-48
-3.07436e-50
-3.33884e-47
-4.13701e-49
-4.10408e-46
-5.41097e-48
-4.85638e-45
-6.84335e-47
-5.56322e-44
-8.39747e-46
-6.09244e-43
-9.91723e-45
-6.45122e-42
-1.13584e-43
-6.4593e-41
-1.24695e-42
-6.2579e-40
-1.33901e-41
-5.62013e-39
-1.39389e-40
-4.90565e-38
-1.48989e-39
-3.78955e-37
-1.63545e-38
-2.86373e-36
-1.96105e-37
-1.63841e-35
-2.32289e-36
-9.1979e-35
-2.58844e-35
-2.22575e-34
-3.21306e-37
1.88755e-35
3.92622e-37
7.22664e-36
6.11167e-38
7.69419e-37
1.08535e-38
6.31278e-38
1.30999e-39
4.6978e-39
1.60024e-40
3.3835e-40
1.65581e-41
2.72208e-41
1.67286e-42
2.36138e-42
1.51883e-43
2.21103e-43
1.31846e-44
2.04686e-44
1.04377e-45
1.87734e-45
7.71499e-47
1.65204e-46
5.09054e-48
1.41351e-47
2.9143e-49
1.16273e-48
1.21832e-50
9.28694e-50
4.98432e-53
7.16685e-51
-6.66672e-53
5.37732e-52
-1.01895e-53
3.9136e-53
-1.1146e-54
2.77385e-54
-1.04961e-55
1.91263e-55
-9.24765e-57
1.28638e-56
-4.66735e-57
8.75853e-58
-6.22339e-56
5.93577e-58
-9.57504e-55
8.69556e-57
-1.43831e-53
1.36802e-55
-2.10755e-52
2.1034e-54
-3.00595e-51
3.15435e-53
-4.17483e-50
4.61416e-52
-5.62848e-49
6.56854e-51
-7.37504e-48
9.10518e-50
-9.34743e-47
1.22484e-48
-1.14912e-45
1.60137e-47
-1.35985e-44
2.02415e-46
-1.55789e-43
2.48136e-45
-1.70608e-42
2.92381e-44
-1.8066e-41
3.32833e-43
-1.80865e-40
3.59015e-42
-1.75223e-39
3.66654e-41
-1.57319e-38
3.30366e-40
-1.3733e-37
2.32943e-39
-1.06044e-36
1.45796e-39
-8.02174e-36
-3.43623e-37
-4.59035e-35
-8.553e-36
-2.59181e-34
-1.34035e-34
-1.56654e-33
1.07922e-36
2.14271e-35
-1.36949e-36
1.54308e-35
-2.42855e-37
1.49499e-36
-4.68425e-38
1.12562e-37
-6.29057e-39
7.27661e-39
-8.51456e-40
4.51734e-40
-9.95764e-41
3.32246e-41
-1.14521e-41
3.04838e-42
-1.20908e-42
3.30405e-43
-1.2411e-43
3.5867e-44
-1.19899e-44
3.81025e-45
-1.12211e-45
3.81429e-46
-1.0014e-46
3.65915e-47
-8.65727e-48
3.33315e-48
-7.19402e-49
2.91948e-49
-5.79897e-50
2.45022e-50
-4.51712e-51
1.98565e-51
-3.41925e-52
1.55164e-52
-2.51066e-53
1.17483e-53
-1.79469e-54
8.61545e-55
-1.24635e-55
6.13904e-56
-5.71886e-57
4.26119e-57
4.26986e-56
4.57605e-58
6.66014e-55
2.77024e-57
1.00035e-53
4.32697e-56
1.46554e-52
6.64715e-55
2.0898e-51
9.95959e-54
2.9017e-50
1.45551e-52
3.91089e-49
2.06995e-51
5.12268e-48
2.86624e-50
6.49011e-47
3.85134e-49
7.97481e-46
5.02891e-48
9.43223e-45
6.34797e-47
1.07991e-43
7.76901e-46
1.18177e-42
9.13551e-45
1.25032e-41
1.03639e-43
1.25048e-40
1.11035e-42
1.21003e-39
1.11458e-41
1.08488e-38
9.54162e-41
9.45504e-38
5.41874e-40
7.28737e-37
-3.54048e-39
5.50224e-36
-1.83124e-37
3.14207e-35
-3.88231e-36
1.77224e-34
-5.74782e-35
-6.37964e-34
1.21513e-36
3.69146e-34
-1.62605e-36
2.50125e-35
-2.82247e-37
2.42868e-36
-5.63789e-38
1.93416e-37
-7.82087e-39
1.51157e-38
-1.11093e-39
1.288e-39
-1.35955e-40
1.35093e-40
-1.6404e-41
1.50483e-41
-1.81131e-42
1.72381e-42
-1.94245e-43
1.86415e-43
-1.95516e-44
1.94355e-44
-1.90296e-45
1.90891e-45
-1.76214e-46
1.80127e-46
-1.57779e-47
1.61872e-47
-1.35532e-48
1.40213e-48
-1.12744e-49
1.16605e-49
-9.04845e-51
9.37857e-51
-7.04653e-52
7.28279e-52
-5.31576e-53
5.48548e-53
-3.89896e-54
4.00524e-54
-2.77681e-55
2.84365e-55
-1.60403e-56
1.96097e-56
4.99092e-56
9.62728e-58