/*--------------------------------*- C++ -*----------------------------------*\
| =========                 |                                                 |
| \\      /  F ield         | OpenFOAM: The Open Source CFD Toolbox           |
|  \\    /   O peration     | Version:  2.4.0                                 |
|   \\  /    A nd           | Web:      www.OpenFOAM.org                      |
|    \\/     M anipulation  |                                                 |
\*---------------------------------------------------------------------------*/
FoamFile
{
    version     2.0;
    format      ascii;
    class       volVectorField;
    location    "0.85";
    object      U;
}
// * * * * * * * * * * * * * * * * * * * * * * * * * * * * * * * * * * * * * //

dimensions      [0 1 -1 0 0 0 0];

internalField   nonuniform List<vector> 
1935
(
(1.39246e-35 4.53715e-36 0)
(1.10769e-34 2.82805e-35 0)
(5.25484e-34 1.71995e-34 0)
(4.50747e-33 1.23677e-34 0)
(4.08053e-33 -3.29619e-34 0)
(-4.07771e-33 -3.2896e-34 0)
(-4.49048e-33 1.29357e-34 0)
(-3.99491e-34 2.05386e-34 0)
(5.28034e-34 2.29328e-34 0)
(5.03547e-33 3.06446e-34 0)
(8.71366e-33 -1.7132e-34 0)
(6.53446e-34 -4.53295e-34 0)
(-3.42653e-33 1.23675e-34 0)
(4.20844e-33 2.95654e-34 0)
(4.52467e-33 -1.29446e-34 0)
(5.28034e-34 -1.72758e-34 0)
(1.11312e-34 -2.8386e-35 0)
(1.47336e-35 -5.02329e-36 0)
(2.22378e-36 -6.70052e-37 0)
(2.77624e-37 -8.93209e-38 0)
(3.51855e-38 -1.05266e-38 0)
(4.01696e-39 -1.21106e-39 0)
(4.50208e-40 -1.29031e-40 0)
(5.17618e-41 -1.20251e-41 0)
(5.21376e-41 1.2147e-41 0)
(4.545e-40 1.3021e-40 0)
(4.05907e-39 1.22307e-39 0)
(3.55873e-38 1.06422e-38 0)
(2.81182e-37 9.04002e-38 0)
(2.25485e-36 6.79341e-37 0)
(1.49752e-35 5.10183e-36 0)
(1.1325e-34 2.89643e-35 0)
(5.40473e-34 1.7709e-34 0)
(4.62069e-33 1.52629e-34 0)
(4.62069e-33 -1.52629e-34 0)
(5.40473e-34 -1.7709e-34 0)
(1.1325e-34 -2.89643e-35 0)
(1.49752e-35 -5.10183e-36 0)
(2.25485e-36 -6.79343e-37 0)
(2.81174e-37 -9.04143e-38 0)
(3.55389e-38 -1.07394e-38 0)
(3.79835e-39 -1.79218e-39 0)
(-5.22228e-40 -3.21527e-39 0)
(-3.29689e-39 -1.17033e-38 0)
(5.71222e-36 -2.04635e-36 0)
(4.0355e-35 -1.51568e-35 0)
(1.82649e-34 -9.19913e-35 0)
(9.86779e-34 -6.58628e-35 0)
(8.39363e-34 1.759e-34 0)
(-8.381e-34 1.7558e-34 0)
(-9.79534e-34 -6.87347e-35 0)
(-1.3581e-34 -1.09764e-34 0)
(1.83789e-34 -1.22721e-34 0)
(1.17055e-33 -1.63313e-34 0)
(1.87282e-33 9.16654e-35 0)
(2.30355e-34 2.41762e-34 0)
(-6.08746e-34 -6.58621e-35 0)
(8.87042e-34 -1.57848e-34 0)
(9.94118e-34 6.87755e-35 0)
(1.83789e-34 9.23603e-35 0)
(4.06217e-35 1.52262e-35 0)
(6.24495e-36 2.55281e-36 0)
(9.83965e-37 3.24983e-37 0)
(1.3141e-37 4.09211e-38 0)
(1.71842e-38 4.59227e-39 0)
(2.03647e-39 5.04663e-40 0)
(2.33452e-40 5.1704e-41 0)
(2.75271e-41 4.66919e-42 0)
(2.77328e-41 -4.7138e-42 0)
(2.35765e-40 -5.21479e-41 0)
(2.05879e-39 -5.09328e-40 0)
(1.7392e-38 -4.63877e-39 0)
(1.33208e-37 -4.1373e-38 0)
(9.99063e-37 -3.2906e-37 0)
(6.35871e-36 -2.58903e-36 0)
(4.14702e-35 -1.55093e-35 0)
(1.89016e-34 -9.45789e-35 0)
(1.02823e-33 -8.13668e-35 0)
(1.02823e-33 8.13668e-35 0)
(1.89016e-34 9.45789e-35 0)
(4.14702e-35 1.55093e-35 0)
(6.35871e-36 2.58903e-36 0)
(9.99052e-37 3.29047e-37 0)
(1.33133e-37 4.12752e-38 0)
(1.69529e-38 3.95173e-39 0)
(-3.23435e-40 -3.60532e-39 0)
(-8.76793e-39 -2.27251e-38 0)
(-3.11736e-38 -8.88699e-38 0)
(1.75033e-36 -8.99484e-37 0)
(1.0407e-35 -6.21319e-36 0)
(3.68394e-35 -2.97458e-35 0)
(1.5489e-34 -1.91422e-35 0)
(1.26972e-34 5.6391e-35 0)
(-1.26552e-34 5.62358e-35 0)
(-1.52721e-34 -2.04277e-35 0)
(-2.45231e-35 -3.71177e-35 0)
(3.72141e-35 -4.23684e-35 0)
(1.92097e-34 -5.13211e-35 0)
(2.9412e-34 2.95869e-35 0)
(4.94321e-35 7.55328e-35 0)
(-7.7448e-35 -1.91417e-35 0)
(1.39557e-34 -4.88839e-35 0)
(1.57091e-34 2.04485e-35 0)
(3.7214e-35 2.99253e-35 0)
(1.04834e-35 6.2451e-36 0)
(1.84096e-36 1.13107e-36 0)
(3.21589e-37 1.57714e-37 0)
(4.60352e-38 2.08372e-38 0)
(6.34838e-39 2.46269e-39 0)
(7.82889e-40 2.80144e-40 0)
(9.26137e-41 2.97165e-41 0)
(1.12179e-41 2.74748e-42 0)
(1.13045e-41 -2.77504e-42 0)
(9.35717e-41 -2.99846e-41 0)
(7.91943e-40 -2.82889e-40 0)
(6.43053e-39 -2.48933e-39 0)
(4.67234e-38 -2.1087e-38 0)
(3.27134e-37 -1.5989e-37 0)
(1.88046e-36 -1.14938e-36 0)
(1.07573e-35 -6.38141e-36 0)
(3.87207e-35 -3.08937e-35 0)
(1.6564e-34 -2.55207e-35 0)
(1.6564e-34 2.55207e-35 0)
(3.87207e-35 3.08937e-35 0)
(1.07573e-35 6.38141e-36 0)
(1.88045e-36 1.14937e-36 0)
(3.2706e-37 1.59806e-37 0)
(4.62031e-38 2.04517e-38 0)
(3.33049e-39 -2.02526e-39 0)
(-1.62505e-38 -2.71215e-38 0)
(-6.52964e-38 -1.54086e-37 0)
(-2.30048e-37 -6.1267e-37 0)
(3.8174e-37 -3.15496e-37 0)
(1.95828e-36 -1.9675e-36 0)
(5.42062e-36 -8.66707e-36 0)
(1.86702e-35 -5.35156e-36 0)
(1.48954e-35 1.64211e-35 0)
(-1.47965e-35 1.6365e-35 0)
(-1.82017e-35 -5.79277e-36 0)
(-3.0567e-36 -1.10236e-35 0)
(5.50742e-36 -1.26621e-35 0)
(2.41755e-35 -1.48489e-35 0)
(3.59137e-35 8.60605e-36 0)
(7.84623e-36 2.17718e-35 0)
(-7.02647e-36 -5.35049e-36 0)
(1.73197e-35 -1.40128e-35 0)
(1.91456e-35 5.80071e-36 0)
(5.50742e-36 8.72934e-36 0)
(1.97312e-36 1.97544e-36 0)
(3.91999e-37 3.86143e-37 0)
(7.45423e-38 5.72411e-38 0)
(1.13243e-38 7.97268e-39 0)
(1.62849e-39 9.83307e-40 0)
(2.07593e-40 1.15857e-40 0)
(2.51779e-41 1.26461e-41 0)
(3.11868e-42 1.19455e-42 0)
(3.14339e-42 -1.20699e-42 0)
(2.54478e-41 -1.2765e-41 0)
(2.10101e-40 -1.1705e-40 0)
(1.65076e-39 -9.94613e-40 0)
(1.15061e-38 -8.07562e-39 0)
(7.59576e-38 -5.81059e-38 0)
(4.01644e-37 -3.93107e-37 0)
(2.03592e-36 -2.02447e-36 0)
(5.8216e-36 -9.05626e-36 0)
(2.0704e-35 -7.37398e-36 0)
(2.0704e-35 7.37398e-36 0)
(5.8216e-36 9.05626e-36 0)
(2.03592e-36 2.02447e-36 0)
(4.0158e-37 3.93047e-37 0)
(7.54741e-38 5.7601e-38 0)
(8.08189e-39 4.20423e-39 0)
(-1.90214e-38 -2.68998e-38 0)
(-1.15215e-37 -1.71999e-37 0)
(-4.51158e-37 -9.87055e-37 0)
(-1.61494e-36 -4.0162e-36 0)
(5.69598e-38 -1.51995e-37 0)
(3.39229e-37 -4.80437e-37 0)
(6.57109e-37 -1.85055e-36 0)
(1.66431e-36 -1.08891e-36 0)
(1.28269e-36 3.45654e-36 0)
(-1.26121e-36 3.44364e-36 0)
(-1.57131e-36 -1.18887e-36 0)
(-2.44084e-37 -2.36376e-36 0)
(6.71502e-37 -2.73058e-36 0)
(2.33267e-36 -3.10783e-36 0)
(3.34959e-36 1.81064e-36 0)
(1.07543e-36 4.54051e-36 0)
(-2.01665e-37 -1.08252e-36 0)
(1.70367e-36 -2.90725e-36 0)
(1.75344e-36 1.19091e-36 0)
(6.71501e-37 1.84167e-36 0)
(3.35133e-37 4.46833e-37 0)
(7.45295e-38 9.22547e-38 0)
(1.53587e-38 1.43641e-38 0)
(2.45344e-39 2.07897e-39 0)
(3.66276e-40 2.64963e-40 0)
(4.80206e-41 3.20258e-41 0)
(5.9536e-42 3.57237e-42 0)
(7.51664e-43 3.4278e-43 0)
(7.57756e-43 -3.46455e-43 0)
(6.01939e-42 -3.60702e-42 0)
(4.86231e-41 -3.23682e-41 0)
(3.71529e-40 -2.6815e-40 0)
(2.49536e-39 -2.10734e-39 0)
(1.56756e-38 -1.45963e-38 0)
(7.66047e-38 -9.40615e-38 0)
(3.47942e-37 -4.59054e-37 0)
(7.29936e-37 -1.91903e-36 0)
(2.00911e-36 -1.54131e-36 0)
(2.00911e-36 1.5413e-36 0)
(7.2993e-37 1.91902e-36 0)
(3.47896e-37 4.59017e-37 0)
(7.62181e-38 9.3733e-38 0)
(1.27199e-38 1.17968e-38 0)
(-1.87243e-38 -1.96449e-38 0)
(-1.29794e-37 -1.59086e-37 0)
(-7.40785e-37 -1.00339e-36 0)
(-2.96335e-36 -5.89478e-36 0)
(-1.08356e-35 -2.47089e-35 0)
(-1.13116e-37 -5.34248e-37 0)
(1.02699e-37 -3.29806e-37 0)
(9.43119e-38 -5.20159e-37 0)
(1.0805e-37 -2.45227e-37 0)
(6.72816e-38 6.60343e-37 0)
(-5.76581e-38 6.64865e-37 0)
(-7.33765e-38 -2.27094e-37 0)
(-3.58809e-39 -4.62777e-37 0)
(7.16595e-38 -5.36182e-37 0)
(1.60731e-37 -5.99775e-37 0)
(2.15788e-37 3.49827e-37 0)
(1.35354e-37 8.73736e-37 0)
(7.37419e-38 -2.04217e-37 0)
(1.29486e-37 -5.57144e-37 0)
(1.05048e-37 2.27322e-37 0)
(7.16552e-38 3.56678e-37 0)
(5.2063e-38 9.02925e-38 0)
(1.27273e-38 1.95408e-38 0)
(2.79435e-39 3.16315e-39 0)
(4.64906e-40 4.73332e-40 0)
(7.15281e-41 6.19825e-41 0)
(9.60004e-42 7.65806e-42 0)
(1.21225e-42 8.69783e-43 0)
(1.5558e-43 8.4579e-44 0)
(1.56866e-43 -8.55075e-44 0)
(1.226e-42 -8.78443e-43 0)
(9.7244e-42 -7.74255e-42 0)
(7.25955e-41 -6.27571e-41 0)
(4.73265e-40 -4.801e-40 0)
(2.856e-39 -3.21729e-39 0)
(1.31183e-38 -1.99504e-38 0)
(5.43731e-38 -9.29669e-38 0)
(8.14443e-38 -3.72932e-37 0)
(1.43448e-37 -2.97122e-37 0)
(1.43446e-37 2.9712e-37 0)
(8.14161e-38 3.72913e-37 0)
(5.41199e-38 9.27849e-38 0)
(1.09654e-38 1.82996e-38 0)
(-1.38186e-38 -1.10431e-38 0)
(-1.21168e-37 -1.12158e-37 0)
(-7.60599e-37 -8.42752e-37 0)
(-4.42889e-36 -5.44846e-36 0)
(-1.82242e-35 -3.30538e-35 0)
(-6.82659e-35 -1.44108e-34 0)
(-7.54656e-37 -3.20024e-36 0)
(3.9862e-37 -1.47231e-36 0)
(1.89667e-37 -1.08393e-36 0)
(1.21838e-37 -2.81083e-37 0)
(2.6352e-38 6.12059e-38 0)
(1.20386e-38 1.05691e-37 0)
(7.72224e-39 -3.99287e-38 0)
(3.4231e-39 -8.06327e-38 0)
(7.23957e-39 -9.34826e-38 0)
(3.2015e-39 -1.02962e-37 0)
(1.31278e-39 6.01066e-38 0)
(1.69213e-38 1.49591e-37 0)
(2.15452e-38 -3.43291e-38 0)
(5.79863e-39 -9.50293e-38 0)
(-1.40636e-39 3.86379e-38 0)
(7.21418e-39 6.14225e-38 0)
(7.84217e-39 1.61254e-38 0)
(2.05667e-39 3.62429e-39 0)
(4.7403e-40 6.06e-40 0)
(8.13766e-41 9.31708e-41 0)
(1.28276e-41 1.24798e-41 0)
(1.7547e-42 1.57021e-42 0)
(2.24988e-43 1.8109e-43 0)
(2.92729e-44 1.7809e-44 0)
(2.95189e-44 -1.80086e-44 0)
(2.27596e-43 -1.82934e-43 0)
(1.77805e-42 -1.58799e-42 0)
(1.30253e-41 -1.26408e-41 0)
(8.29007e-41 -9.45557e-41 0)
(4.8505e-40 -6.1687e-40 0)
(2.12477e-39 -3.70462e-39 0)
(8.23129e-39 -1.66351e-38 0)
(8.77089e-39 -6.44158e-38 0)
(4.21389e-39 -5.09524e-38 0)
(4.20069e-39 5.09438e-38 0)
(8.6296e-39 6.43348e-38 0)
(6.95121e-39 1.58439e-38 0)
(-8.90468e-39 -3.56103e-39 0)
(-8.62933e-38 -6.31531e-38 0)
(-6.45568e-37 -5.13747e-37 0)
(-4.13421e-36 -3.94716e-36 0)
(-2.47723e-35 -2.6417e-35 0)
(-1.05566e-34 -1.67103e-34 0)
(-4.08677e-34 -7.68473e-34 0)
(-3.93382e-36 -1.83614e-35 0)
(3.16495e-36 -8.32381e-36 0)
(1.29627e-36 -5.9604e-36 0)
(7.93063e-37 -1.40781e-36 0)
(1.85949e-37 -2.80454e-37 0)
(4.29267e-38 -2.98772e-38 0)
(9.26917e-39 -1.35144e-38 0)
(1.86545e-39 -1.41159e-38 0)
(8.69697e-40 -1.54242e-38 0)
(-1.3105e-39 -1.66887e-38 0)
(-2.42731e-39 9.73269e-39 0)
(2.14527e-39 2.41732e-38 0)
(3.97623e-39 -5.46955e-39 0)
(-2.99497e-40 -1.53083e-38 0)
(-1.65512e-39 6.21361e-39 0)
(7.27169e-40 9.96673e-39 0)
(1.13584e-39 2.6878e-39 0)
(3.13133e-40 6.23055e-40 0)
(7.47748e-41 1.06905e-40 0)
(1.31556e-41 1.68063e-41 0)
(2.1143e-42 2.29309e-42 0)
(2.93819e-43 2.92919e-43 0)
(3.81581e-44 3.42144e-44 0)
(5.02322e-45 3.39675e-45 0)
(5.06603e-45 -3.43549e-45 0)
(3.86089e-44 -3.45693e-44 0)
(2.97816e-43 -2.96312e-43 0)
(2.14778e-42 -2.32347e-42 0)
(1.34103e-41 -1.70642e-41 0)
(7.65859e-41 -1.08897e-40 0)
(3.24094e-40 -6.37501e-40 0)
(1.19682e-39 -2.77734e-39 0)
(9.6069e-40 -1.04785e-38 0)
(-8.65156e-40 -8.24731e-39 0)
(-9.22553e-40 8.21485e-39 0)
(3.40287e-40 1.01723e-38 0)
(-4.49242e-39 -2.52229e-40 0)
(-4.94401e-38 -2.76189e-38 0)
(-3.98645e-37 -2.53012e-37 0)
(-3.03491e-36 -2.09334e-36 0)
(-1.99882e-35 -1.66773e-35 0)
(-1.23837e-34 -1.17154e-34 0)
(-5.50547e-34 -7.87818e-34 0)
(-2.21064e-33 -3.90057e-33 0)
(-1.49568e-35 -1.00354e-34 0)
(2.61997e-35 -4.33927e-35 0)
(9.27698e-36 -3.11212e-35 0)
(4.84615e-36 -7.13332e-36 0)
(1.08457e-36 -1.46769e-36 0)
(2.28458e-37 -2.28633e-37 0)
(3.73806e-38 -3.50078e-38 0)
(5.73578e-39 -6.41876e-39 0)
(8.19723e-40 -2.88104e-39 0)
(-2.29023e-40 -2.58605e-39 0)
(-5.25669e-40 1.46726e-39 0)
(2.79364e-40 3.65228e-39 0)
(6.21866e-40 -8.16124e-40 0)
(-1.25776e-40 -2.30692e-39 0)
(-3.40825e-40 9.34903e-40 0)
(7.75407e-41 1.51173e-39 0)
(1.59832e-40 4.17172e-40 0)
(4.55704e-41 9.91393e-41 0)
(1.11685e-41 1.73776e-41 0)
(2.00273e-42 2.78205e-42 0)
(3.26912e-43 3.855e-43 0)
(4.60222e-44 4.98719e-44 0)
(6.04091e-45 5.88879e-45 0)
(8.03123e-46 5.8937e-46 0)
(8.10047e-46 -5.96194e-46 0)
(6.11336e-45 -5.95086e-45 0)
(4.66595e-44 -5.04607e-44 0)
(3.32197e-43 -3.90725e-43 0)
(2.04244e-42 -2.82592e-42 0)
(1.14465e-41 -1.77123e-41 0)
(4.72171e-41 -1.01529e-40 0)
(1.68708e-40 -4.31725e-40 0)
(1.09079e-40 -1.59339e-39 0)
(-2.54387e-40 -1.25496e-39 0)
(-4.75166e-40 1.16431e-39 0)
(-2.30553e-39 7.28104e-40 0)
(-2.23053e-38 -8.25272e-39 0)
(-2.00246e-37 -8.23728e-38 0)
(-1.64057e-36 -7.57588e-37 0)
(-1.28476e-35 -6.49591e-36 0)
(-8.75271e-35 -5.45732e-35 0)
(-5.66174e-34 -4.14074e-34 0)
(-2.64787e-33 -3.0477e-33 0)
(-1.12982e-32 -1.68839e-32 0)
(-1.20252e-35 -4.9232e-34 0)
(2.158e-34 -2.12763e-34 0)
(6.45699e-35 -1.55842e-34 0)
(2.70695e-35 -3.41192e-35 0)
(5.63519e-36 -6.75566e-36 0)
(1.1249e-36 -1.02399e-36 0)
(1.76119e-37 -1.46542e-37 0)
(2.60366e-38 -1.87707e-38 0)
(3.39395e-39 -2.56283e-39 0)
(3.65201e-40 -6.11165e-40 0)
(-3.75618e-41 1.86109e-40 0)
(4.11742e-41 5.23033e-40 0)
(8.85043e-41 -1.16454e-40 0)
(-2.22137e-41 -3.31242e-40 0)
(-5.30048e-41 1.34061e-40 0)
(8.78421e-42 2.18208e-40 0)
(2.16196e-41 6.13304e-41 0)
(6.31398e-42 1.48573e-41 0)
(1.57802e-42 2.64805e-42 0)
(2.87394e-43 4.2995e-43 0)
(4.75169e-44 6.03023e-44 0)
(6.76339e-45 7.87871e-45 0)
(8.95881e-46 9.38252e-46 0)
(1.20131e-46 9.44952e-47 0)
(1.21169e-46 -9.56039e-47 0)
(9.06647e-46 -9.48289e-46 0)
(6.85681e-45 -7.97343e-45 0)
(4.82764e-44 -6.11383e-44 0)
(2.92921e-43 -4.3693e-43 0)
(1.61458e-42 -2.70108e-42 0)
(6.50396e-42 -1.52353e-41 0)
(2.23326e-41 -6.36583e-41 0)
(7.06496e-42 -2.31785e-40 0)
(-1.0755e-40 -1.96647e-40 0)
(-7.58587e-40 -7.80116e-42 0)
(-7.2042e-39 -1.74989e-39 0)
(-6.82118e-38 -2.02111e-38 0)
(-6.20641e-37 -1.97258e-37 0)
(-5.21163e-36 -1.88363e-36 0)
(-4.20955e-35 -1.70964e-35 0)
(-2.98065e-34 -1.57307e-34 0)
(-2.01882e-33 -1.3484e-33 0)
(-1.0018e-32 -1.14457e-32 0)
(-4.54412e-32 -7.37678e-32 0)
(6.11565e-34 -2.78516e-33 0)
(1.93496e-33 -1.01078e-33 0)
(5.01392e-34 -7.06418e-34 0)
(1.71388e-34 -1.46831e-34 0)
(3.24588e-35 -2.7581e-35 0)
(6.08132e-36 -4.01628e-36 0)
(9.09934e-37 -5.54762e-37 0)
(1.30309e-37 -6.82268e-38 0)
(1.65332e-38 -8.06654e-39 0)
(1.9958e-39 -9.14486e-40 0)
(2.15089e-40 -7.15311e-41 0)
(2.72612e-41 4.22802e-41 0)
(1.0927e-41 -1.2139e-41 0)
(-2.12655e-42 -3.2419e-41 0)
(-5.33551e-42 1.3089e-41 0)
(7.43563e-43 2.14122e-41 0)
(2.04649e-42 6.12556e-42 0)
(6.07746e-43 1.52123e-42 0)
(1.54015e-43 2.76619e-43 0)
(2.83703e-44 4.57938e-44 0)
(4.73452e-45 6.52886e-45 0)
(6.79349e-46 8.65695e-46 0)
(9.05792e-47 1.04414e-46 0)
(1.22193e-47 1.06233e-47 0)
(1.2303e-47 -1.07489e-47 0)
(9.1334e-47 -1.05534e-46 0)
(6.84103e-46 -8.76058e-46 0)
(4.74777e-45 -6.61789e-45 0)
(2.80991e-44 -4.6508e-44 0)
(1.47215e-43 -2.8169e-43 0)
(4.98795e-43 -1.55321e-42 0)
(6.01249e-43 -6.26971e-42 0)
(-1.67245e-41 -2.16568e-41 0)
(-2.01843e-40 -6.58562e-42 0)
(-2.09374e-39 1.35915e-40 0)
(-2.13398e-38 1.2245e-39 0)
(-2.06005e-37 1.14625e-38 0)
(-1.92489e-36 9.58948e-38 0)
(-1.66467e-35 6.07017e-37 0)
(-1.40099e-34 -7.78143e-38 0)
(-1.03664e-33 -8.65795e-35 0)
(-7.53568e-33 -1.8587e-33 0)
(-4.01875e-32 -2.51803e-32 0)
(-2.16033e-31 -2.37825e-31 0)
(1.32057e-32 -1.442e-32 0)
(2.35594e-32 -5.78226e-33 0)
(4.80012e-33 -4.22449e-33 0)
(1.18435e-33 -7.66355e-34 0)
(1.95311e-34 -1.36955e-34 0)
(3.27501e-35 -1.88984e-35 0)
(4.58611e-36 -2.53696e-36 0)
(6.24354e-37 -3.03099e-37 0)
(7.64688e-38 -3.50413e-38 0)
(9.00499e-39 -3.76726e-39 0)
(9.85431e-40 -3.88381e-40 0)
(1.03992e-40 -3.37826e-41 0)
(1.09857e-41 -4.61073e-42 0)
(8.01744e-43 -3.16448e-42 0)
(-3.30618e-43 1.11791e-42 0)
(6.22094e-44 1.88186e-42 0)
(1.58235e-43 5.45118e-43 0)
(4.75314e-44 1.36657e-43 0)
(1.22339e-44 2.50731e-44 0)
(2.28291e-45 4.17799e-45 0)
(3.85645e-46 5.99203e-46 0)
(5.59182e-47 7.97916e-47 0)
(7.52557e-48 9.65999e-48 0)
(1.02531e-48 9.85578e-49 0)
(1.0471e-48 -9.91005e-49 0)
(7.81029e-48 -9.67924e-48 0)
(5.93298e-47 -7.95587e-47 0)
(4.26698e-46 -5.9107e-46 0)
(2.77463e-45 -4.02536e-45 0)
(1.81002e-44 -2.27078e-44 0)
(1.16305e-43 -1.0394e-43 0)
(9.50225e-43 -1.24162e-43 0)
(8.90092e-42 3.21952e-42 0)
(9.54441e-41 5.76689e-41 0)
(9.94714e-40 6.50664e-40 0)
(9.95214e-39 6.76931e-39 0)
(9.4184e-38 6.69975e-38 0)
(8.56015e-37 5.98327e-37 0)
(7.22191e-36 4.48034e-36 0)
(5.84331e-35 1.59042e-35 0)
(4.19128e-34 -2.67378e-34 0)
(2.86327e-33 -8.26485e-33 0)
(1.4746e-32 -1.31069e-31 0)
(6.95209e-32 -1.51062e-30 0)
(1.66761e-31 -1.06232e-31 0)
(2.05829e-31 -1.47453e-32 0)
(2.95258e-32 -1.40879e-33 0)
(6.86718e-33 -1.01729e-34 0)
(1.02073e-33 -5.17986e-36 0)
(1.65029e-34 -1.26596e-37 0)
(2.20706e-35 1.35533e-38 0)
(2.93294e-36 2.70187e-39 0)
(3.50043e-37 3.35192e-40 0)
(4.05325e-38 3.46888e-41 0)
(4.36457e-39 3.54518e-42 0)
(4.53514e-40 6.70206e-43 0)
(4.46569e-41 -4.97849e-44 0)
(4.21922e-42 -2.22345e-43 0)
(3.51089e-43 9.10197e-44 0)
(3.79073e-44 1.49883e-43 0)
(1.52496e-44 4.39011e-44 0)
(4.00601e-45 1.11474e-44 0)
(9.98408e-46 2.0685e-45 0)
(1.85712e-46 3.48205e-46 0)
(3.14312e-47 5.03882e-47 0)
(4.57515e-48 6.76194e-48 0)
(6.18283e-49 8.24224e-49 0)
(8.93063e-50 8.44711e-50 0)
(1.55406e-49 -8.59648e-50 0)
(1.61285e-48 -8.39701e-49 0)
(1.81515e-47 -6.93604e-48 0)
(2.11935e-46 -5.23483e-47 0)
(2.51716e-45 -3.70588e-46 0)
(3.0263e-44 -2.32563e-45 0)
(3.59521e-43 -1.41384e-44 0)
(4.20129e-42 -7.84786e-44 0)
(4.75112e-41 -5.47494e-43 0)
(5.20832e-40 -4.54103e-42 0)
(5.46335e-39 -4.82937e-41 0)
(5.52828e-38 -5.01196e-40 0)
(5.29555e-37 -4.85161e-39 0)
(4.89077e-36 -3.99947e-38 0)
(4.1941e-35 -2.15883e-37 0)
(3.4763e-34 1.42566e-36 0)
(2.55336e-33 6.89892e-35 0)
(1.81983e-32 1.39399e-33 0)
(9.75744e-32 1.97728e-32 0)
(5.11062e-31 2.1187e-31 0)
(1.96843e-32 -1.03486e-31 0)
(2.01932e-32 -1.13433e-32 0)
(4.18886e-33 2.52068e-33 0)
(1.05626e-33 6.37729e-34 0)
(1.77575e-34 1.29585e-34 0)
(3.02593e-35 1.86022e-35 0)
(4.28724e-36 2.53615e-36 0)
(5.89068e-37 3.04506e-37 0)
(7.26563e-38 3.52494e-38 0)
(8.60509e-39 3.78719e-39 0)
(9.46584e-40 3.92502e-40 0)
(9.9961e-41 3.85395e-41 0)
(9.985e-42 3.64164e-42 0)
(9.57999e-43 3.12724e-43 0)
(8.55881e-44 3.61856e-44 0)
(8.11115e-45 1.43879e-44 0)
(1.5887e-45 3.72869e-45 0)
(3.38511e-46 9.17821e-46 0)
(7.87005e-47 1.69705e-46 0)
(1.44278e-47 2.85976e-47 0)
(2.43663e-48 4.15141e-48 0)
(3.55591e-49 5.58718e-49 0)
(4.82278e-50 6.8276e-50 0)
(7.07646e-51 6.60528e-51 0)
(1.3283e-50 -1.31979e-50 0)
(1.40605e-49 -1.57061e-49 0)
(1.60099e-48 -1.80487e-48 0)
(1.87647e-47 -2.11984e-47 0)
(2.22237e-46 -2.55783e-46 0)
(2.64366e-45 -3.11071e-45 0)
(3.09557e-44 -3.79192e-44 0)
(3.54754e-43 -4.54224e-43 0)
(3.92896e-42 -5.33081e-42 0)
(4.19684e-41 -6.0421e-41 0)
(4.28759e-40 -6.62234e-40 0)
(4.19163e-39 -6.89835e-39 0)
(3.88047e-38 -6.80668e-38 0)
(3.41233e-37 -6.00972e-37 0)
(2.79413e-36 -4.32196e-36 0)
(2.14374e-35 -1.06544e-35 0)
(1.4741e-34 3.78559e-34 0)
(9.08892e-34 1.01206e-32 0)
(4.42865e-33 1.55605e-31 0)
(1.50712e-32 1.76056e-30 0)
(4.59528e-33 -1.12744e-32 0)
(-1.15349e-34 -1.86067e-33 0)
(1.14886e-34 3.19738e-34 0)
(8.91871e-35 1.08027e-34 0)
(2.09018e-35 2.37669e-35 0)
(4.44561e-36 3.6496e-36 0)
(7.12157e-37 5.16044e-37 0)
(1.0686e-37 6.41332e-38 0)
(1.39895e-38 7.59967e-39 0)
(1.73366e-39 8.34682e-40 0)
(1.97292e-40 8.79631e-41 0)
(2.14025e-41 8.76835e-42 0)
(2.18345e-42 8.40448e-43 0)
(2.13387e-43 7.57723e-44 0)
(1.97017e-44 7.36346e-45 0)
(1.80572e-45 1.47515e-45 0)
(2.21492e-46 3.14361e-46 0)
(3.37913e-47 7.24752e-47 0)
(6.56182e-48 1.32167e-47 0)
(1.13481e-48 2.22234e-48 0)
(1.87295e-49 3.23384e-49 0)
(2.71288e-50 4.36642e-50 0)
(3.54354e-51 5.35834e-51 0)
(-1.36744e-51 5.7157e-52 0)
(-2.65877e-50 -2.65776e-52 0)
(-3.79095e-49 -1.15558e-51 0)
(-5.23778e-48 1.62327e-50 0)
(-7.03373e-47 5.05688e-49 0)
(-9.1607e-46 8.93405e-48 0)
(-1.15878e-44 1.32199e-46 0)
(-1.41765e-43 1.76778e-45 0)
(-1.68199e-42 2.21655e-44 0)
(-1.92132e-41 2.64961e-43 0)
(-2.12488e-40 3.03336e-42 0)
(-2.24679e-39 3.3863e-41 0)
(-2.29782e-38 3.70617e-40 0)
(-2.22159e-37 4.22463e-39 0)
(-2.08003e-36 5.25599e-38 0)
(-1.80262e-35 7.68026e-37 0)
(-1.52143e-34 1.23054e-35 0)
(-1.12884e-33 1.97993e-34 0)
(-8.23841e-33 2.83897e-33 0)
(-4.40768e-32 3.37388e-32 0)
(-2.38289e-31 2.97092e-31 0)
(5.66808e-34 -2.31558e-33 0)
(-1.65028e-34 -3.9442e-34 0)
(-2.48245e-35 2.00475e-35 0)
(3.74094e-36 1.37054e-35 0)
(1.73487e-36 3.66793e-36 0)
(4.74509e-37 6.22999e-37 0)
(8.53256e-38 9.51823e-38 0)
(1.37588e-38 1.25083e-38 0)
(1.8917e-39 1.54926e-39 0)
(2.42819e-40 1.76028e-40 0)
(2.84012e-41 1.90623e-41 0)
(3.1471e-42 1.94157e-42 0)
(3.26743e-43 1.89535e-43 0)
(3.2401e-44 1.75395e-44 0)
(3.04303e-45 1.61997e-45 0)
(2.78477e-46 2.01881e-46 0)
(2.88443e-47 3.10837e-47 0)
(3.50765e-48 6.02864e-48 0)
(5.57786e-49 1.03934e-48 0)
(8.83839e-50 1.70912e-49 0)
(1.40163e-50 2.46971e-50 0)
(2.0041e-51 3.32888e-51 0)
(3.22326e-52 4.37097e-52 0)
(8.24706e-52 4.79659e-52 0)
(1.13609e-50 6.4384e-51 0)
(1.58907e-49 9.32272e-50 0)
(2.16385e-48 1.31623e-48 0)
(2.86704e-47 1.8076e-47 0)
(3.68528e-46 2.41555e-46 0)
(4.59729e-45 3.13257e-45 0)
(5.54176e-44 3.94616e-44 0)
(6.46481e-43 4.80792e-43 0)
(7.24901e-42 5.67863e-42 0)
(7.84186e-41 6.45628e-41 0)
(8.09164e-40 7.10208e-40 0)
(8.02951e-39 7.47091e-39 0)
(7.50756e-38 7.60096e-38 0)
(6.73186e-37 7.334e-37 0)
(5.56108e-36 6.8891e-36 0)
(4.39575e-35 6.0883e-35 0)
(3.03676e-34 5.34711e-34 0)
(1.99169e-33 4.30002e-33 0)
(9.53637e-33 3.40265e-32 0)
(4.13227e-32 2.04614e-31 0)
(8.33653e-35 -2.79062e-34 0)
(-3.69901e-35 -5.44582e-35 0)
(-7.11934e-36 -6.53773e-37 0)
(-4.76732e-37 1.22218e-36 0)
(8.08853e-38 4.06903e-37 0)
(4.24532e-38 7.60099e-38 0)
(9.08508e-39 1.23689e-38 0)
(1.61475e-39 1.70185e-39 0)
(2.35548e-40 2.18098e-40 0)
(3.15434e-41 2.54622e-41 0)
(3.80592e-42 2.8164e-42 0)
(4.32051e-43 2.91962e-43 0)
(4.57231e-44 2.89178e-44 0)
(4.60561e-45 2.71724e-45 0)
(4.39042e-46 2.49418e-46 0)
(4.03993e-47 2.6061e-47 0)
(3.86271e-48 3.19827e-48 0)
(4.01877e-49 5.10408e-49 0)
(5.17712e-50 8.08299e-50 0)
(7.19765e-51 1.27863e-50 0)
(1.06175e-51 1.82103e-51 0)
(1.70009e-52 2.45716e-52 0)
(3.77392e-52 5.88109e-53 0)
(5.30014e-51 4.42076e-52 0)
(7.64578e-50 6.50364e-51 0)
(1.07612e-48 9.40549e-50 0)
(1.47416e-47 1.32675e-48 0)
(1.96576e-46 1.82174e-47 0)
(2.54423e-45 2.43543e-46 0)
(3.19868e-44 3.16071e-45 0)
(3.88924e-43 3.98591e-44 0)
(4.58307e-42 4.86262e-43 0)
(5.19751e-41 5.7526e-42 0)
(5.69961e-40 6.55369e-41 0)
(5.9723e-39 7.23171e-40 0)
(6.04065e-38 7.64944e-39 0)
(5.77222e-37 7.87675e-38 0)
(5.32365e-36 7.81239e-37 0)
(4.54218e-35 7.79689e-36 0)
(3.75209e-34 7.78285e-35 0)
(2.72532e-33 8.26565e-34 0)
(1.92432e-32 8.60935e-33 0)
(9.99406e-32 8.58051e-32 0)
(5.06654e-31 6.62465e-31 0)
(9.55911e-36 -3.97128e-35 0)
(-4.65288e-36 -8.03555e-36 0)
(-9.9689e-37 -6.24768e-37 0)
(-1.19257e-37 5.84066e-38 0)
(-2.40796e-39 3.78019e-38 0)
(3.02438e-39 8.22806e-39 0)
(8.17406e-40 1.46339e-39 0)
(1.60985e-40 2.1302e-40 0)
(2.48791e-41 2.84522e-41 0)
(3.46494e-42 3.42551e-42 0)
(4.30219e-43 3.88144e-43 0)
(4.99192e-44 4.10149e-44 0)
(5.37622e-45 4.12639e-45 0)
(5.49275e-46 3.93249e-46 0)
(5.30303e-47 3.62212e-47 0)
(4.91766e-48 3.47754e-48 0)
(4.562e-49 3.64013e-49 0)
(4.38807e-50 4.71361e-50 0)
(4.8736e-51 6.56494e-51 0)
(5.96281e-52 9.66185e-52 0)
(8.24939e-53 1.33101e-52 0)
(4.61183e-53 1.62321e-53 0)
(5.40479e-52 -1.83123e-53 0)
(7.98513e-51 -3.0952e-52 0)
(1.15368e-49 -4.58366e-51 0)
(1.62574e-48 -6.61612e-50 0)
(2.22995e-47 -9.31347e-49 0)
(2.9778e-46 -1.27606e-47 0)
(3.85992e-45 -1.7019e-46 0)
(4.86106e-44 -2.20313e-45 0)
(5.92126e-43 -2.77024e-44 0)
(6.99222e-42 -3.36819e-43 0)
(7.94739e-41 -3.96625e-42 0)
(8.73829e-40 -4.4849e-41 0)
(9.18226e-39 -4.86982e-40 0)
(9.31995e-38 -4.94586e-39 0)
(8.93864e-37 -4.54458e-38 0)
(8.28443e-36 -3.12958e-37 0)
(7.10376e-35 -5.94841e-38 0)
(5.91189e-34 5.86164e-35 0)
(4.32524e-33 1.50677e-33 0)
(3.09446e-32 2.66655e-32 0)
(1.62615e-31 3.5957e-31 0)
(8.51444e-31 3.6964e-30 0)
(1.13973e-36 -4.4772e-36 0)
(-5.62778e-37 -9.65595e-37 0)
(-1.25811e-37 -1.13849e-37 0)
(-1.97621e-38 -2.32514e-39 0)
(-1.5327e-39 2.789e-39 0)
(1.18005e-40 7.4973e-40 0)
(6.18652e-41 1.46738e-40 0)
(1.44234e-41 2.25812e-41 0)
(2.4098e-42 3.13419e-42 0)
(3.52451e-43 3.88194e-43 0)
(4.52459e-44 4.4954e-44 0)
(5.38172e-45 4.83403e-45 0)
(5.90768e-46 4.93269e-46 0)
(6.12811e-47 4.75938e-47 0)
(5.99254e-48 4.41413e-48 0)
(5.60759e-49 4.10302e-49 0)
(5.14005e-50 3.96105e-50 0)
(4.73661e-51 4.41932e-51 0)
(4.74129e-52 5.42153e-52 0)
(5.15468e-53 7.29646e-53 0)
(6.30166e-54 9.3408e-54 0)
(1.78183e-54 -2.89934e-54 0)
(1.54712e-53 -6.39879e-53 0)
(2.27886e-52 -9.72536e-52 0)
(3.29445e-51 -1.44075e-50 0)
(4.64573e-50 -2.08209e-49 0)
(6.37708e-49 -2.93475e-48 0)
(8.52282e-48 -4.0265e-47 0)
(1.10574e-46 -5.37839e-46 0)
(1.39394e-45 -6.97378e-45 0)
(1.69979e-44 -8.78524e-44 0)
(2.00971e-43 -1.07038e-42 0)
(2.28728e-42 -1.26387e-41 0)
(2.51884e-41 -1.4348e-40 0)
(2.65123e-40 -1.57008e-39 0)
(2.69647e-39 -1.62424e-38 0)
(2.59169e-38 -1.57243e-37 0)
(2.40868e-37 -1.30428e-36 0)
(2.07126e-36 -7.30724e-36 0)
(1.73071e-35 3.80259e-35 0)
(1.27116e-34 2.06907e-33 0)
(9.15487e-34 4.23862e-32 0)
(4.83898e-33 6.03498e-31 0)
(2.57118e-32 6.47746e-30 0)
(1.18644e-37 -5.2339e-37 0)
(-5.80559e-38 -1.16132e-37 0)
(-1.35423e-38 -1.7861e-38 0)
(-2.46518e-39 -1.33669e-39 0)
(-2.55313e-40 1.18147e-40 0)
(-6.63468e-42 5.75792e-41 0)
(3.6473e-42 1.32231e-41 0)
(1.12881e-42 2.1948e-42 0)
(2.08002e-43 3.19633e-43 0)
(3.21315e-44 4.09178e-44 0)
(4.27269e-45 4.85654e-45 0)
(5.21176e-46 5.3226e-46 0)
(5.83137e-47 5.5141e-47 0)
(6.14007e-48 5.38776e-48 0)
(6.07883e-49 5.04012e-49 0)
(5.7418e-50 4.62362e-50 0)
(5.25152e-51 4.26914e-51 0)
(4.74322e-52 4.28707e-52 0)
(4.46416e-53 4.67516e-53 0)
(4.30723e-54 5.66131e-54 0)
(-1.79367e-54 6.02116e-55 0)
(-3.53523e-53 -1.4439e-54 0)
(-5.3682e-52 -2.37146e-53 0)
(-7.95104e-51 -3.5943e-52 0)
(-1.14878e-49 -5.3194e-51 0)
(-1.61885e-48 -7.67913e-50 0)
(-2.2205e-47 -1.08114e-48 0)
(-2.96519e-46 -1.48149e-47 0)
(-3.84358e-45 -1.97617e-46 0)
(-4.84048e-44 -2.55855e-45 0)
(-5.89617e-43 -3.21766e-44 0)
(-6.96256e-42 -3.9129e-43 0)
(-7.91363e-41 -4.60894e-42 0)
(-8.7011e-40 -5.21425e-41 0)
(-9.14307e-39 -5.66892e-40 0)
(-9.28007e-38 -5.77788e-39 0)
(-8.90021e-37 -5.36811e-38 0)
(-8.24871e-36 -3.86518e-37 0)
(-7.07295e-35 -6.15017e-37 0)
(-5.88625e-34 5.65145e-35 0)
(-4.30639e-33 1.53603e-33 0)
(-3.08125e-32 2.76164e-32 0)
(-1.61929e-31 3.74715e-31 0)
(-8.48286e-31 3.87097e-30 0)
(1.22313e-38 -5.38837e-38 0)
(-5.88162e-39 -1.24082e-38 0)
(-1.40569e-39 -2.22032e-39 0)
(-2.86252e-40 -2.25574e-40 0)
(-3.47244e-41 -4.85037e-42 0)
(-2.51934e-42 3.46822e-42 0)
(8.31471e-44 1.04146e-42 0)
(7.40523e-44 1.90226e-43 0)
(1.61614e-44 2.92423e-44 0)
(2.69827e-45 3.87703e-45 0)
(3.75246e-46 4.719e-46 0)
(4.71758e-47 5.27175e-47 0)
(5.39463e-48 5.54397e-48 0)
(5.77507e-49 5.48406e-49 0)
(5.79322e-50 5.17753e-50 0)
(5.52779e-51 4.73636e-51 0)
(5.06855e-52 4.28024e-52 0)
(4.53906e-53 4.03808e-53 0)
(4.11179e-54 4.20337e-54 0)
(2.73172e-55 5.02909e-55 0)
(-1.59246e-54 1.72367e-55 0)
(-2.52348e-53 1.70358e-54 0)
(-3.82263e-52 2.63175e-53 0)
(-5.65579e-51 3.99381e-52 0)
(-8.16239e-50 5.92176e-51 0)
(-1.14881e-48 8.56598e-50 0)
(-1.57369e-47 1.20868e-48 0)
(-2.09837e-46 1.66022e-47 0)
(-2.71568e-45 2.22049e-46 0)
(-3.41396e-44 2.8832e-45 0)
(-4.15058e-43 3.63805e-44 0)
(-4.89046e-42 4.44103e-43 0)
(-5.54531e-41 5.25771e-42 0)
(-6.07997e-40 5.99482e-41 0)
(-6.36953e-39 6.62229e-40 0)
(-6.44083e-38 7.0156e-39 0)
(-6.15273e-37 7.24413e-38 0)
(-5.67253e-36 7.22312e-37 0)
(-4.83763e-35 7.28442e-36 0)
(-3.99411e-34 7.40258e-35 0)
(-2.89921e-33 8.04603e-34 0)
(-2.04595e-32 8.58373e-33 0)
(-1.06175e-31 8.69761e-32 0)
(-5.38298e-31 6.8047e-31 0)
(-7.20957e-35 3.5723e-30 0)
(8.28769e-40 -7.07287e-39 0)
(-3.94668e-40 -1.67458e-39 0)
(-9.60655e-41 -3.42902e-40 0)
(-2.05437e-41 -4.229e-41 0)
(-2.64478e-42 -3.3056e-42 0)
(-2.31802e-43 3.78294e-44 0)
(-3.81145e-45 7.74503e-44 0)
(3.70611e-45 1.76831e-44 0)
(9.38615e-46 3.00382e-45 0)
(1.65606e-46 4.21604e-46 0)
(2.37147e-47 5.33147e-47 0)
(3.03794e-48 6.12169e-48 0)
(3.52023e-49 6.57331e-49 0)
(3.80583e-50 6.60995e-50 0)
(3.8476e-51 6.31515e-51 0)
(3.6943e-52 5.77132e-52 0)
(3.41331e-53 4.8378e-53 0)
(3.4429e-54 4.55593e-54 0)
(3.35964e-55 3.36067e-54 0)
(-1.71351e-55 9.62436e-55 0)
(-4.59676e-55 3.48745e-55 0)
(-6.30421e-54 1.44027e-54 0)
(-9.4987e-53 2.15541e-53 0)
(-1.40101e-51 3.26464e-52 0)
(-2.01513e-50 4.83241e-51 0)
(-2.82553e-49 6.97766e-50 0)
(-3.85459e-48 9.8263e-49 0)
(-5.11587e-47 1.3469e-47 0)
(-6.58712e-46 1.79725e-46 0)
(-8.23245e-45 2.32785e-45 0)
(-9.94423e-44 2.92907e-44 0)
(-1.16287e-42 3.56474e-43 0)
(-1.3076e-41 4.2052e-42 0)
(-1.41935e-40 4.775e-41 0)
(-1.47046e-39 5.24467e-40 0)
(-1.4664e-38 5.50803e-39 0)
(-1.37932e-37 5.59203e-38 0)
(-1.24609e-36 5.3823e-37 0)
(-1.03904e-35 5.03714e-36 0)
(-8.30852e-35 4.42986e-35 0)
(-5.82536e-34 3.86115e-34 0)
(-3.88443e-33 3.07566e-33 0)
(-1.90121e-32 2.40646e-32 0)
(-8.3749e-32 1.43127e-31 0)
(-1.02935e-35 7.06165e-31 0)
(-3.50072e-39 -1.75622e-38 0)
(1.65326e-39 -4.15106e-39 0)
(4.06776e-40 -8.46462e-40 0)
(9.05373e-41 -1.04064e-40 0)
(1.22419e-41 -8.0961e-42 0)
(1.2343e-42 9.67576e-44 0)
(6.04354e-44 1.90178e-43 0)
(-8.67822e-45 4.32896e-44 0)
(-3.01762e-45 7.34055e-45 0)
(-5.79874e-46 1.02884e-45 0)
(-8.63703e-47 1.29963e-46 0)
(-1.13284e-47 1.49086e-47 0)
(-1.33333e-48 1.59963e-48 0)
(-1.45793e-49 1.60708e-49 0)
(-1.48653e-50 1.52776e-50 0)
(-1.43481e-51 1.35805e-51 0)
(-1.29296e-52 6.57713e-53 0)
(-4.62523e-54 9.13514e-54 0)
(1.193e-55 5.09555e-53 0)
(-3.07318e-54 1.56352e-53 0)
(-1.06157e-54 4.38939e-54 0)
(-1.67498e-54 1.20728e-54 0)
(-2.11505e-53 5.62653e-54 0)
(-3.10767e-52 8.27476e-53 0)
(-4.46254e-51 1.2206e-51 0)
(-6.24482e-50 1.75628e-50 0)
(-8.49895e-49 2.46362e-49 0)
(-1.12476e-47 3.36245e-48 0)
(-1.44329e-46 4.46506e-47 0)
(-1.79642e-45 5.75259e-46 0)
(-2.15946e-44 7.19436e-45 0)
(-2.51058e-43 8.69703e-44 0)
(-2.80353e-42 1.01793e-42 0)
(-3.01765e-41 1.14581e-41 0)
(-3.09473e-40 1.24529e-40 0)
(-3.04791e-39 1.29223e-39 0)
(-2.82297e-38 1.2916e-38 0)
(-2.50159e-37 1.21943e-37 0)
(-2.03504e-36 1.10889e-36 0)
(-1.57817e-35 9.36407e-36 0)
(-1.0626e-34 7.65417e-35 0)
(-6.76761e-34 5.57836e-34 0)
(-3.10809e-33 3.89794e-33 0)
(-1.30406e-32 2.03976e-32 0)
(-8.15247e-37 9.0363e-32 0)
(-3.8185e-38 -1.68598e-37 0)
(1.83196e-38 -3.89997e-38 0)
(4.39662e-39 -7.15125e-39 0)
(9.09457e-40 -7.60303e-40 0)
(1.1291e-40 -2.80272e-41 0)
(8.96053e-42 8.60813e-42 0)
(-6.41288e-44 2.89982e-42 0)