/*--------------------------------*- C++ -*----------------------------------*\
| =========                 |                                                 |
| \\      /  F ield         | OpenFOAM: The Open Source CFD Toolbox           |
|  \\    /   O peration     | Version:  2.4.0                                 |
|   \\  /    A nd           | Web:      www.OpenFOAM.org                      |
|    \\/     M anipulation  |                                                 |
\*---------------------------------------------------------------------------*/
FoamFile
{
    version     2.0;
    format      ascii;
    class       volVectorField;
    location    "0.1";
    object      U;
}
// * * * * * * * * * * * * * * * * * * * * * * * * * * * * * * * * * * * * * //

dimensions      [0 1 -1 0 0 0 0];

internalField   nonuniform List<vector> 
1915
(
(-2.17883e-35 6.6935e-35 0)
(-1.78383e-36 1.71101e-36 0)
(-4.99917e-38 9.78088e-38 0)
(-2.8036e-39 2.4815e-39 0)
(-7.59051e-41 1.08649e-40 0)
(-3.27462e-42 2.66899e-42 0)
(-8.43953e-44 9.53564e-44 0)
(-2.98054e-45 2.23603e-45 0)
(-7.25079e-47 6.77428e-47 0)
(-2.17767e-48 1.50356e-48 0)
(-4.9745e-50 3.9625e-50 0)
(-1.30293e-51 8.27899e-52 0)
(-2.7851e-53 1.93199e-53 0)
(-6.38259e-55 3.7859e-55 0)
(4.24328e-55 1.05238e-56 0)
(2.22792e-53 9.27863e-56 0)
(9.61538e-52 3.83293e-54 0)
(4.58398e-50 1.14189e-52 0)
(1.75558e-48 4.34563e-51 0)
(7.85418e-47 1.02905e-49 0)
(2.62602e-45 3.59358e-48 0)
(1.10705e-43 6.14277e-47 0)
(3.15719e-42 1.95392e-45 0)
(1.26181e-40 1.9025e-44 0)
(2.96569e-39 5.33672e-43 0)
(-2.88789e-33 3.79841e-37 0)
(-1.11665e-31 2.48266e-38 0)
(-7.13096e-31 1.63676e-38 0)
(-3.62169e-29 3.80673e-40 0)
(-1.20347e-29 1.33077e-39 0)
(3.57274e-29 2.27624e-40 0)
(4.13806e-31 -8.12861e-40 0)
(-1.1886e-29 -1.32206e-39 0)
(4.05632e-32 -3.74062e-37 0)
(1.22613e-29 -3.81034e-35 0)
(1.2523e-29 -2.96283e-33 0)
(1.25603e-29 -1.5715e-31 0)
(1.25247e-29 -2.96283e-33 0)
(1.2298e-29 -3.81038e-35 0)
(2.63334e-31 -3.74712e-37 0)
(9.68664e-34 -1.32349e-39 0)
(-2.25288e-31 -1.82105e-40 0)
(-1.20338e-29 2.35799e-42 0)
(-2.26255e-31 2.12901e-40 0)
(-3.69998e-32 5.37325e-42 0)
(-8.91995e-34 4.55315e-43 0)
(-7.47055e-35 1.15604e-44 0)
(-1.90518e-36 6.5392e-46 0)
(-1.08857e-37 1.64857e-47 0)
(-2.76204e-39 7.1751e-49 0)
(-1.20956e-40 1.75294e-50 0)
(-2.97171e-42 6.23992e-52 0)
(-1.06183e-43 1.45636e-53 0)
(-2.49012e-45 4.40145e-55 0)
(-7.54432e-47 9.73016e-57 0)
(-1.67456e-48 2.55977e-58 0)
(-4.41315e-50 5.2389e-60 0)
(-9.22079e-52 -4.80209e-60 0)
(-2.15169e-53 -2.3658e-58 0)
(-4.1168e-55 -1.2075e-56 0)
(5.19194e-55 -5.31791e-55 0)
(2.47372e-53 -2.57602e-53 0)
(1.19372e-51 -1.03496e-51 0)
(4.82909e-50 -4.76841e-50 0)
(2.13847e-48 -1.73101e-48 0)
(7.41883e-47 -7.59194e-47 0)
(3.04243e-45 -2.45045e-45 0)
(8.89712e-44 -1.02349e-43 0)
(3.40447e-42 -2.8644e-42 0)
(8.14751e-41 -1.14175e-40 0)
(-6.95461e-35 1.99115e-34 0)
(-2.3355e-33 2.38677e-33 0)
(-1.52789e-32 9.23944e-32 0)
(-5.50406e-31 2.82839e-32 0)
(-1.82644e-31 -1.83572e-31 0)
(5.39919e-31 -3.21579e-32 0)
(8.89968e-33 1.21382e-31 0)
(-1.79534e-31 1.40874e-33 0)
(8.60745e-34 -6.18581e-32 0)
(1.87518e-31 -3.22578e-32 0)
(1.93502e-31 -3.87119e-33 0)
(1.9388e-31 -1.57152e-31 0)
(1.92737e-31 -2.12112e-33 0)
(1.88264e-31 3.14135e-32 0)
(5.63093e-33 3.15166e-32 0)
(2.36019e-35 1.6183e-33 0)
(-4.8335e-33 3.06753e-32 0)
(-1.8262e-31 1.81142e-36 0)
(-4.85707e-33 -3.06064e-32 0)
(-7.72828e-34 -7.74777e-34 0)
(-2.17883e-35 -6.6935e-35 0)
(-1.78383e-36 -1.71101e-36 0)
(-4.99917e-38 -9.78088e-38 0)
(-2.8036e-39 -2.4815e-39 0)
(-7.59051e-41 -1.08649e-40 0)
(-3.27462e-42 -2.66899e-42 0)
(-8.43953e-44 -9.53564e-44 0)
(-2.98054e-45 -2.23603e-45 0)
(-7.25079e-47 -6.77428e-47 0)
(-2.17767e-48 -1.50356e-48 0)
(-4.9745e-50 -3.9625e-50 0)
(-1.30293e-51 -8.27899e-52 0)
(-2.78513e-53 -1.93199e-53 0)
(-6.51669e-55 -3.80886e-55 0)
(-1.66247e-55 -1.11653e-55 0)
(-6.32786e-54 -3.63104e-54 0)
(-1.8774e-52 -1.47558e-52 0)
(-7.11023e-51 -4.34619e-51 0)
(-1.66483e-49 -1.62746e-49 0)
(-5.75413e-48 -3.84796e-48 0)
(-9.4583e-47 -1.32538e-46 0)
(-2.92319e-45 -2.31141e-45 0)
(-2.23063e-44 -7.29005e-44 0)
(-5.19823e-43 -7.81497e-43 0)
(7.65714e-42 -2.23125e-41 0)
(-2.03697e-35 2.41872e-34 0)
(-2.11931e-34 7.19299e-35 0)
(-2.36084e-34 1.90585e-33 0)
(-5.46378e-33 5.71314e-34 0)
(-1.86185e-33 -3.7631e-33 0)
(5.28357e-33 -6.65151e-34 0)
(5.76742e-35 2.48455e-33 0)
(-1.62357e-33 3.42745e-35 0)
(6.69597e-35 -1.27067e-33 0)
(1.93279e-33 -6.68363e-34 0)
(2.44081e-33 -9.42306e-35 0)
(2.0985e-33 -2.73682e-33 0)
(1.63984e-33 -5.17952e-35 0)
(1.97091e-33 6.46217e-34 0)
(1.18584e-34 6.49489e-34 0)
(1.8765e-36 3.92952e-35 0)
(-5.81742e-35 6.29097e-34 0)
(-1.85992e-33 4.74851e-38 0)
(-6.00667e-35 -6.2745e-34 0)
(-5.92129e-35 -1.88259e-35 0)
(-1.71891e-36 -1.597e-36 0)
(-1.74958e-37 -4.48956e-38 0)
(-4.90108e-39 -2.51945e-39 0)
(-2.95093e-40 -6.821e-41 0)
(-7.9012e-42 -2.94205e-42 0)
(-3.49261e-43 -7.58165e-44 0)
(-8.85494e-45 -2.67728e-45 0)
(-3.13677e-46 -6.51263e-47 0)
(-7.48222e-48 -1.9559e-48 0)
(-2.22754e-49 -4.46775e-50 0)
(-4.97729e-51 -1.1702e-51 0)
(-1.28265e-52 -2.50138e-53 0)
(-2.67908e-54 -5.83793e-55 0)
(-1.75894e-55 -1.06725e-55 0)
(-4.0227e-54 -4.24654e-54 0)
(-1.63299e-52 -1.47113e-52 0)
(-4.79998e-51 -6.08639e-51 0)
(-1.79458e-49 -1.77037e-49 0)
(-4.22209e-48 -6.79094e-48 0)
(-1.44935e-46 -1.57937e-46 0)
(-2.4896e-45 -5.61349e-45 0)
(-7.78065e-44 -9.5314e-44 0)
(-7.76846e-43 -3.12314e-42 0)
(-2.13118e-41 -3.09442e-41 0)
(-2.12403e-41 -9.06039e-40 0)
(-2.02239e-33 2.04575e-33 0)
(-2.83971e-33 4.75497e-34 0)
(-8.59692e-35 5.95558e-34 0)
(-5.10829e-35 5.95299e-35 0)
(-1.46115e-35 -3.13452e-34 0)
(3.71852e-35 -5.54821e-35 0)
(-2.34905e-37 2.07539e-34 0)
(-9.28989e-36 2.74132e-36 0)
(1.41901e-36 -1.06108e-34 0)
(1.50889e-35 -5.64573e-35 0)
(2.52845e-35 -1.18332e-35 0)
(1.77814e-35 -3.87019e-34 0)
(7.85168e-36 -8.28661e-36 0)
(1.57869e-35 5.33254e-35 0)
(1.75835e-36 5.42641e-35 0)
(4.3378e-38 3.23611e-36 0)
(-4.95363e-37 5.25895e-35 0)
(-1.42279e-35 4.68287e-39 0)
(-5.3921e-37 -5.24272e-35 0)
(-1.23737e-36 -1.53758e-36 0)
(-3.98322e-38 -1.5741e-37 0)
(-4.05064e-39 -4.4112e-39 0)
(-1.21431e-40 -2.65531e-40 0)
(-7.22154e-42 -7.10904e-42 0)
(-2.02965e-43 -3.1418e-43 0)
(-8.86066e-45 -7.9649e-45 0)
(-2.3289e-46 -2.82118e-46 0)
(-8.16144e-48 -6.72905e-48 0)
(-2.00045e-49 -2.0032e-49 0)
(-5.90292e-51 -4.47586e-51 0)
(-1.34635e-52 -1.1534e-52 0)
(-3.44748e-54 -2.40768e-54 0)
(-1.78721e-55 -1.00484e-55 0)
(-4.7211e-54 -1.79679e-54 0)
(-1.63495e-52 -7.85062e-53 0)
(-6.76379e-51 -2.67967e-51 0)
(-1.96718e-49 -1.08758e-49 0)
(-7.54531e-48 -3.1386e-48 0)
(-1.75443e-46 -1.18324e-46 0)
(-6.235e-45 -2.76094e-45 0)
(-1.05818e-43 -9.66488e-44 0)
(-3.46678e-42 -1.67972e-42 0)
(-3.4314e-41 -5.4326e-41 0)
(-1.00496e-39 -5.73575e-40 0)
(-1.06157e-39 -1.65174e-38 0)
(-1.64726e-31 9.42809e-32 0)
(-1.70417e-31 1.79188e-33 0)
(-3.65433e-33 2.77132e-35 0)
(-5.268e-34 1.26126e-36 0)
(-1.34256e-35 -6.63141e-36 0)
(-1.39078e-36 -1.17799e-36 0)
(-9.49365e-38 4.37483e-36 0)
(2.8541e-37 6.38083e-38 0)
(7.79462e-38 -2.24197e-36 0)
(7.79091e-39 -1.20176e-36 0)
(7.42076e-37 -2.86202e-37 0)
(1.21359e-37 -8.08585e-36 0)
(-6.31573e-37 -2.03705e-37 0)
(3.38427e-38 1.12557e-36 0)
(6.78323e-38 1.14896e-36 0)
(2.31287e-39 7.53071e-38 0)
(1.13431e-40 1.11009e-36 0)
(1.79728e-38 1.15973e-40 0)
(-2.24673e-39 -1.10632e-36 0)
(-6.74074e-38 -3.57883e-38 0)
(-2.13067e-39 -3.64629e-39 0)
(-2.32961e-40 -1.09321e-40 0)
(-6.88709e-42 -6.49895e-42 0)
(-4.19764e-43 -1.82638e-43 0)
(-1.16176e-44 -7.9716e-45 0)
(-5.08945e-46 -2.09507e-46 0)
(-1.31476e-47 -7.34119e-48 0)
(-4.57086e-49 -1.7993e-49 0)
(-1.09919e-50 -5.30909e-51 0)
(-3.19511e-52 -1.21087e-52 0)
(-7.13883e-54 -3.09892e-54 0)
(-2.29906e-55 -1.01235e-55 0)
(-2.00036e-54 -1.70372e-54 0)
(-8.72873e-53 -6.64045e-53 0)
(-2.97923e-51 -2.96127e-51 0)
(-1.2091e-49 -1.00266e-49 0)
(-3.48891e-48 -4.17739e-48 0)
(-1.3152e-46 -1.194e-46 0)
(-3.06824e-45 -4.65967e-45 0)
(-1.07395e-43 -1.07559e-43 0)
(-1.86583e-42 -3.94393e-42 0)
(-6.035e-41 -6.78503e-41 0)
(-6.3826e-40 -2.34072e-39 0)
(-1.84708e-38 -2.46619e-38 0)
(-2.70128e-38 -7.80331e-37 0)
(-1.49459e-33 9.79751e-32 0)
(-3.10057e-33 1.47496e-33 0)
(-8.90868e-35 -4.10284e-34 0)
(-1.21214e-35 -1.13667e-35 0)
(-3.51441e-37 -1.31632e-36 0)
(-3.92285e-38 -8.97266e-38 0)
(-2.33162e-39 2.38836e-37 0)
(7.8084e-39 3.35812e-39 0)
(1.66832e-39 -1.23068e-37 0)
(-1.618e-39 -6.66539e-38 0)
(1.42318e-38 -2.06225e-38 0)
(6.56905e-40 -6.21798e-37 0)
(-1.5713e-38 -1.61518e-38 0)
(-1.1808e-39 6.10283e-38 0)
(1.36252e-39 6.30445e-38 0)
(5.2235e-41 4.05548e-39 0)
(7.38872e-41 6.09658e-38 0)
(2.15665e-39 6.58827e-42 0)
(2.04281e-41 -6.0749e-38 0)
(-1.42693e-39 -1.92108e-39 0)
(-4.83256e-41 -2.09849e-40 0)
(-5.2215e-42 -6.20316e-42 0)
(-1.62222e-43 -3.77909e-43 0)
(-9.74889e-45 -1.04581e-44 0)
(-2.79803e-46 -4.58054e-46 0)
(-1.20978e-47 -1.18321e-47 0)
(-3.20995e-49 -4.11304e-49 0)
(-1.10315e-50 -9.89043e-51 0)
(-2.70492e-52 -2.87476e-52 0)
(-7.78517e-54 -6.42206e-54 0)
(-2.1587e-55 -1.6968e-55 0)
(-1.89736e-54 -3.74127e-55 0)
(-7.38438e-53 -1.7311e-53 0)
(-3.29289e-51 -6.64618e-52 0)
(-1.11489e-49 -2.89864e-50 0)
(-4.6447e-48 -9.73211e-49 0)
(-1.32742e-46 -3.97483e-47 0)
(-5.17996e-45 -1.13989e-45 0)
(-1.19545e-43 -4.37516e-44 0)
(-4.38301e-42 -1.03457e-42 0)
(-7.53863e-41 -3.75165e-41 0)
(-2.60163e-39 -6.90604e-40 0)
(-2.7554e-38 -2.3797e-38 0)
(-8.8104e-37 -2.98293e-37 0)
(-1.78642e-36 -9.35858e-36 0)
(4.46568e-34 2.92863e-31 0)
(-2.64623e-34 5.5489e-33 0)
(-6.86819e-36 6.3515e-35 0)
(-1.37859e-36 4.55081e-37 0)
(-3.90273e-38 -2.54706e-38 0)
(-3.88997e-39 -2.01363e-39 0)
(-1.58961e-40 5.05092e-39 0)
(3.47094e-40 7.61254e-41 0)
(6.98209e-41 -2.6107e-39 0)
(-8.90192e-41 -1.42365e-39 0)
(7.37566e-40 -4.90274e-40 0)
(-4.7325e-43 -1.3536e-38 0)
(-8.54759e-40 -3.88996e-40 0)
(-8.10397e-41 1.29137e-39 0)
(5.49782e-41 1.33923e-39 0)
(2.11524e-42 9.19721e-41 0)
(4.01142e-42 1.29226e-39 0)
(1.15501e-40 1.5507e-43 0)
(1.82664e-42 -1.28739e-39 0)
(-5.93292e-41 -4.35959e-41 0)
(-1.97137e-42 -4.70415e-42 0)
(-2.18356e-43 -1.46127e-43 0)
(-6.68145e-45 -8.77754e-45 0)
(-4.03009e-46 -2.51898e-46 0)
(-1.13895e-47 -1.08889e-47 0)
(-4.88715e-49 -2.88899e-49 0)
(-1.27541e-50 -9.9274e-51 0)
(-4.32064e-52 -2.43406e-52 0)
(-1.04057e-53 -7.00447e-54 0)
(-3.03446e-55 -1.64222e-55 0)
(-4.19375e-55 -2.89233e-55 0)
(-1.92744e-53 -1.22792e-53 0)
(-7.39998e-52 -5.86089e-52 0)
(-3.22729e-50 -2.23816e-50 0)
(-1.08351e-48 -1.0036e-48 0)
(-4.42504e-47 -3.34408e-47 0)
(-1.26886e-45 -1.41484e-45 0)
(-4.8697e-44 -4.01679e-44 0)
(-1.15129e-42 -1.61408e-42 0)
(-4.17475e-41 -3.76862e-41 0)
(-7.68951e-40 -1.45408e-39 0)
(-2.65779e-38 -2.63638e-38 0)
(-3.44132e-37 -9.9478e-37 0)
(-1.15025e-35 -1.23015e-35 0)
(-8.24385e-35 -4.54243e-34 0)
(-1.97093e-33 1.93511e-31 0)
(9.43135e-34 3.68184e-33 0)
(1.96266e-35 5.70038e-35 0)
(1.15939e-36 7.72583e-37 0)
(2.07069e-38 2.51717e-38 0)
(2.40951e-40 5.9248e-40 0)
(-8.09884e-42 2.45726e-40 0)
(6.00997e-42 4.07691e-42 0)
(1.4164e-42 -1.08546e-40 0)
(-1.8508e-42 -5.97826e-41 0)
(1.59253e-41 -2.4948e-41 0)
(-8.04255e-44 -7.19375e-40 0)
(-1.84932e-41 -2.08007e-41 0)
(-1.80311e-42 5.30611e-41 0)
(1.12919e-42 5.56623e-41 0)
(4.59115e-44 3.7568e-42 0)
(9.01277e-44 5.37599e-41 0)
(2.45525e-42 6.38779e-45 0)
(4.25363e-44 -5.35565e-41 0)
(-1.2297e-42 -1.77905e-42 0)
(-4.30223e-44 -1.96757e-43 0)
(-4.68614e-45 -6.01959e-45 0)
(-1.48897e-46 -3.62915e-46 0)
(-8.83871e-48 -1.02554e-47 0)
(-2.56709e-49 -4.39955e-49 0)
(-1.08579e-50 -1.14808e-50 0)
(-2.88892e-52 -3.88884e-52 0)
(-9.66221e-54 -9.36512e-54 0)
(-2.41974e-55 -2.6449e-55 0)
(-3.24314e-55 -6.11874e-57 0)
(-1.3676e-53 -1.18474e-56 0)
(-6.5274e-52 -5.86539e-55 0)
(-2.49269e-50 -2.52282e-53 0)
(-1.11768e-48 -1.18022e-51 0)
(-3.72405e-47 -4.50497e-50 0)
(-1.57546e-45 -1.97235e-48 0)
(-4.47235e-44 -6.56591e-47 0)
(-1.79691e-42 -2.69973e-45 0)
(-4.19467e-41 -7.64366e-44 0)
(-1.61831e-39 -2.96734e-42 0)
(-2.93541e-38 -6.87971e-41 0)
(-1.11018e-36 -2.54398e-39 0)
(-1.41222e-35 -4.5464e-38 0)
(-5.48335e-34 -1.62549e-36 0)
(-3.85588e-33 -1.96782e-35 0)
(-3.75273e-33 -9.41821e-32 0)
(-2.39318e-33 -1.28408e-33 0)
(-7.56619e-35 4.6309e-34 0)
(-1.11801e-35 1.27942e-35 0)
(-3.37762e-37 1.061e-36 0)
(-2.67358e-38 2.79868e-38 0)
(-7.76588e-40 1.55681e-39 0)
(-4.24727e-41 4.0157e-41 0)
(-1.13125e-42 -5.30223e-43 0)
(-1.09241e-43 -1.20586e-42 0)
(6.56741e-43 -5.71823e-43 0)
(-3.28016e-45 -1.55523e-41 0)
(-7.45419e-43 -4.83027e-43 0)
(-6.49076e-44 1.09686e-42 0)
(3.74701e-44 1.15594e-42 0)
(1.50434e-45 8.19202e-44 0)
(3.00266e-45 1.11464e-42 0)
(8.3024e-44 1.42226e-46 0)
(1.42917e-45 -1.11027e-42 0)
(-4.13158e-44 -3.88301e-44 0)
(-1.42271e-45 -4.22293e-45 0)
(-1.55534e-46 -1.34156e-46 0)
(-4.87338e-48 -7.95984e-48 0)
(-2.87086e-49 -2.31159e-49 0)
(-8.21931e-51 -9.77509e-51 0)
(-3.42737e-52 -2.60064e-52 0)
(-8.97919e-54 -8.69692e-54 0)
(-2.9486e-55 -2.12181e-55 0)
(-7.53603e-57 -5.95362e-57 0)
(-2.27518e-56 -2.55506e-57 0)
(-1.06424e-54 -9.79063e-56 0)
(-4.72906e-53 -7.27955e-54 0)
(-2.05061e-51 -2.51929e-52 0)
(-8.22966e-50 -1.7732e-50 0)
(-3.27354e-48 -5.18247e-49 0)
(-1.1715e-46 -3.51388e-47 0)
(-4.26616e-45 -8.48373e-46 0)
(-1.33547e-43 -5.63766e-44 0)
(-4.44498e-42 -1.08754e-42 0)
(-1.18082e-40 -7.23491e-41 0)
(-3.59023e-39 -1.05933e-39 0)
(-7.68339e-38 -7.28753e-38 0)
(-2.13369e-36 -7.53034e-37 0)
(-3.25893e-35 -5.67699e-35 0)
(-7.86431e-34 -4.00545e-34 0)
(-1.82994e-31 -1.27106e-33 0)
(-1.8918e-31 -3.49142e-35 0)
(-4.05642e-33 -1.73575e-37 0)
(-5.85109e-34 3.51881e-39 0)
(-1.49217e-35 5.82964e-40 0)
(-1.18341e-36 1.53482e-41 0)
(-3.11069e-38 8.66504e-43 0)
(-1.72456e-39 1.96264e-44 0)
(-4.4541e-41 -7.50626e-44 0)
(-1.91617e-42 -4.23186e-44 0)
(-3.37065e-44 -2.26437e-44 0)
(-1.74802e-45 -6.34129e-43 0)
(-1.56464e-44 -1.96561e-44 0)
(-1.34787e-45 3.64124e-44 0)
(7.42622e-46 3.88042e-44 0)
(3.1079e-47 2.7089e-45 0)
(6.24229e-47 3.7451e-44 0)
(1.65952e-45 4.65232e-48 0)
(2.97766e-47 -3.7306e-44 0)
(-8.25101e-46 -1.28418e-45 0)
(-2.95806e-47 -1.4017e-46 0)
(-3.17103e-48 -4.39124e-48 0)
(-1.02283e-49 -2.58561e-49 0)
(-5.91995e-51 -7.40185e-51 0)
(-1.72953e-52 -3.08584e-52 0)
(-7.09908e-54 -8.08385e-54 0)
(-1.88468e-55 -2.6542e-55 0)
(-6.2644e-57 -6.36689e-57 0)
(-9.07258e-57 -1.58416e-58 0)
(-4.26476e-55 8.18372e-58 0)
(-2.1761e-53 3.97252e-56 0)
(-9.32533e-52 1.93824e-54 0)
(-4.46196e-50 8.46732e-53 0)
(-1.69319e-48 3.83367e-51 0)
(-7.62612e-47 1.49779e-49 0)
(-2.51745e-45 6.29919e-48 0)
(-1.0732e-43 2.166e-46 0)
(-3.00419e-42 8.46501e-45 0)
(-1.22255e-40 2.47868e-43 0)
(-2.79248e-39 8.66827e-42 0)
(-1.10045e-37 1.51688e-40 0)
(-1.92492e-36 -1.55161e-39 0)
(-7.5314e-35 -8.462e-37 0)
(-8.7121e-34 -8.11415e-35 0)
(-3.4451e-32 -5.43927e-33 0)
(-3.30371e-33 -2.5518e-33 0)
(-2.61833e-33 -5.29205e-34 0)
(-8.06881e-35 -4.85931e-34 0)
(-1.16737e-35 -1.30138e-35 0)
(-3.49614e-37 -1.06122e-36 0)
(-2.74571e-38 -2.79566e-38 0)
(-7.94211e-40 -1.55038e-39 0)
(-4.35229e-41 -4.00377e-41 0)
(-1.2001e-42 -1.72244e-42 0)
(-5.10865e-44 -4.35858e-44 0)
(-8.66749e-46 -2.0064e-45 0)
(-4.84952e-47 -1.33494e-44 0)
(-5.14379e-46 -4.3673e-46 0)
(-4.03488e-47 7.24305e-46 0)
(2.0718e-47 7.76017e-46 0)
(8.57493e-49 5.62647e-47 0)
(1.73898e-48 7.48059e-46 0)
(4.68517e-47 9.75452e-50 0)
(8.30195e-49 -7.45101e-46 0)
(-2.32932e-47 -2.67019e-47 0)
(-8.24495e-49 -2.85794e-48 0)
(-8.76689e-50 -9.21675e-50 0)
(-2.79355e-51 -5.33195e-51 0)
(-1.5934e-52 -1.55758e-52 0)
(-4.59493e-54 -6.3919e-54 0)
(-1.85146e-55 -1.69678e-55 0)
(-4.84477e-57 -5.49195e-57 0)
(-1.45251e-58 -1.24321e-58 0)
(4.47035e-58 4.41373e-58 0)
(2.15603e-56 2.42861e-56 0)
(1.08829e-54 1.16047e-54 0)
(4.67401e-53 5.92268e-53 0)
(2.20658e-51 2.53796e-51 0)
(8.40204e-50 1.21469e-49 0)
(3.72128e-48 4.60898e-48 0)
(1.23434e-46 2.07649e-46 0)
(5.15138e-45 6.85173e-45 0)
(1.45117e-43 2.91824e-43 0)
(5.74546e-42 8.09087e-42 0)
(1.32287e-40 3.17883e-40 0)
(5.02453e-39 5.30751e-39 0)
(8.874e-38 -7.20787e-39 0)
(3.29283e-36 -3.01442e-35 0)
(3.84341e-35 -3.19013e-33 0)
(1.38768e-33 -2.53742e-31 0)
(-5.58639e-34 -1.07892e-31 0)
(2.35317e-34 -2.05706e-33 0)
(4.01832e-36 -3.64028e-35 0)
(-3.63727e-37 -5.77932e-37 0)
(-1.54594e-38 -2.63455e-38 0)
(-1.936e-39 -7.1408e-40 0)
(-5.97179e-41 -3.84171e-41 0)
(-3.74525e-42 -1.05958e-42 0)
(-1.05017e-43 -4.51995e-44 0)
(-4.71161e-45 -1.203e-45 0)
(-1.13303e-46 -5.74346e-47 0)
(-4.41534e-48 -4.42497e-46 0)
(-1.04144e-47 -1.44108e-47 0)
(-8.03221e-49 2.02061e-47 0)
(3.91591e-49 2.18878e-47 0)
(1.67557e-50 1.56716e-48 0)
(3.41864e-50 2.11164e-47 0)
(8.93004e-49 2.66153e-51 0)
(1.63406e-50 -2.10346e-47 0)
(-4.43937e-49 -7.44263e-49 0)
(-1.62275e-50 -7.9015e-50 0)
(-1.68845e-51 -2.51735e-51 0)
(-5.50161e-53 -1.43519e-52 0)
(-3.07835e-54 -4.13824e-54 0)
(-9.00656e-56 -1.6671e-55 0)
(-3.56693e-57 -4.36217e-57 0)
(-8.78402e-59 -1.38266e-58 0)
(3.27713e-58 -3.39819e-60 0)
(1.80482e-56 -5.85791e-60 0)
(8.62349e-55 -3.15e-58 0)
(4.4015e-53 -1.50504e-56 0)
(1.88594e-51 -7.68139e-55 0)
(9.0271e-50 -3.29123e-53 0)
(3.42477e-48 -1.57526e-51 0)
(1.54321e-46 -5.97617e-50 0)
(5.09262e-45 -2.69252e-48 0)
(2.17218e-43 -8.88111e-47 0)
(6.07776e-42 -3.78007e-45 0)
(2.47488e-40 -1.04234e-43 0)
(5.64953e-39 -4.01369e-42 0)
(2.22789e-37 -5.27043e-41 0)
(3.89396e-36 2.22873e-39 0)
(1.52462e-34 6.35071e-37 0)
(1.76185e-33 6.46006e-35 0)
(6.97128e-32 5.02273e-33 0)
(5.18482e-34 -1.08151e-31 0)
(-2.60342e-34 -2.05419e-33 0)
(-5.73587e-36 -2.78179e-35 0)
(-5.82596e-37 -3.02157e-37 0)
(-1.40582e-38 -4.29024e-39 0)
(-8.82691e-40 -7.36144e-41 0)
(-2.18856e-41 -3.54295e-42 0)
(-1.02179e-42 -9.63867e-44 0)
(-2.49849e-44 -4.28504e-45 0)
(-9.36363e-46 -1.11801e-46 0)
(-2.18232e-47 -4.30349e-48 0)
(-6.95845e-49 -8.98606e-48 0)
(-3.02337e-49 -3.05049e-49 0)
(-2.10707e-50 3.83113e-49 0)
(9.41769e-51 4.17567e-49 0)
(3.99604e-52 3.08087e-50 0)
(8.23567e-52 4.02492e-49 0)
(2.17473e-50 5.23589e-53 0)
(3.94009e-52 -4.00917e-49 0)
(-1.08127e-50 -1.46488e-50 0)
(-3.9135e-52 -1.52183e-51 0)
(-4.00874e-53 -4.95776e-53 0)
(-1.29266e-54 -2.77277e-54 0)
(-7.09476e-56 -8.11158e-56 0)
(-2.05136e-57 -3.21192e-57 0)
(-7.95204e-59 -8.47311e-59 0)
(-2.0332e-60 -2.78821e-60 0)
(1.8584e-60 -8.54259e-60 0)
(1.00835e-58 -4.47666e-58 0)
(4.84534e-57 -2.44357e-56 0)
(2.35215e-55 -1.16756e-54 0)
(1.01901e-53 -5.95939e-53 0)
(4.5726e-52 -2.55352e-51 0)
(1.76587e-50 -1.22228e-49 0)
(7.31298e-49 -4.63733e-48 0)
(2.4774e-47 -2.08957e-46 0)
(9.43725e-46 -6.89403e-45 0)
(2.74015e-44 -2.93675e-43 0)
(9.52893e-43 -8.1398e-42 0)
(2.29001e-41 -3.19714e-40 0)
(7.12168e-40 -5.30773e-39 0)
(1.33774e-38 1.155e-38 0)
(3.43875e-37 3.08336e-35 0)
(4.35964e-36 3.25771e-33 0)
(4.12549e-35 2.58888e-31 0)
(-3.07841e-35 -3.83164e-33 0)
(1.54344e-35 -1.00539e-34 0)
(3.40597e-37 -2.47596e-36 0)
(3.25832e-38 -4.18637e-38 0)
(7.68046e-40 -1.73075e-39 0)
(4.54356e-41 -3.99519e-41 0)
(1.08694e-42 -1.79519e-42 0)
(4.79706e-44 -4.32954e-44 0)
(1.12438e-45 -1.60354e-45 0)
(3.997e-47 -3.74386e-47 0)
(9.05807e-49 -1.17515e-48 0)
(2.69534e-50 -2.74654e-49 0)
(-4.90311e-51 -9.11175e-51 0)
(-3.74625e-52 9.20894e-51 0)
(1.69138e-52 1.01613e-50 0)
(7.36398e-54 7.42197e-52 0)
(1.52543e-53 9.8019e-51 0)
(3.92974e-52 1.22874e-54 0)
(7.30666e-54 -9.76452e-51 0)
(-1.95383e-52 -3.53266e-52 0)
(-7.25767e-54 -3.61315e-53 0)
(-7.26195e-55 -1.16488e-54 0)
(-2.38165e-56 -6.39057e-56 0)
(-1.28038e-57 -1.84755e-57 0)
(-3.73806e-59 -7.16059e-59 0)
(-1.47604e-60 -1.86345e-60 0)
(-3.19234e-60 -5.89251e-62 0)
(-1.66561e-58 -1.22074e-61 0)
(-9.0912e-57 -6.37898e-60 0)
(-4.34347e-55 -3.40838e-58 0)
(-2.21687e-53 -1.63343e-56 0)
(-9.49809e-52 -8.11771e-55 0)
(-4.54622e-50 -3.49842e-53 0)
(-1.72467e-48 -1.61923e-51 0)
(-7.77144e-47 -6.19938e-50 0)
(-2.56447e-45 -2.67638e-48 0)
(-1.09387e-43 -8.94095e-47 0)
(-3.06058e-42 -3.59485e-45 0)
(-1.24636e-40 -9.9679e-44 0)
(-2.84523e-39 -3.37279e-42 0)
(-1.12214e-37 -1.56423e-41 0)
(-1.96159e-36 6.25587e-39 0)
(-7.68168e-35 9.56743e-37 0)
(-8.88022e-34 8.57693e-35 0)
(-3.51441e-32 5.58791e-33 0)
(-5.49521e-34 -1.14264e-31 0)
(2.75544e-34 -2.16932e-33 0)
(6.05036e-36 -2.84524e-35 0)
(5.96522e-37 -2.90137e-37 0)
(1.41849e-38 -1.79946e-39 0)
(8.67309e-40 7.99469e-43 0)
(2.10954e-41 8.10201e-43 0)
(9.61521e-43 2.18054e-44 0)
(2.30179e-44 8.23436e-46 0)
(8.43596e-46 1.91048e-47 0)
(1.94655e-47 5.88821e-49 0)
(5.9965e-49 8.19362e-51 0)
(1.30439e-50 1.78534e-52 0)
(3.42305e-52 1.72832e-52 0)
(1.08627e-53 1.83913e-52 0)
(3.26087e-55 1.37506e-53 0)
(3.27139e-55 1.77125e-52 0)
(8.41234e-54 2.2614e-56 0)
(1.55262e-55 -1.76447e-52 0)
(-4.18316e-54 -6.55141e-54 0)
(-1.5425e-55 -6.54544e-55 0)
(-1.51154e-56 -2.14624e-56 0)
(-4.91359e-58 -1.15332e-57 0)
(-2.58252e-59 -3.36662e-59 0)
(-7.458e-61 -1.28057e-60 0)
(-2.94041e-62 -3.26099e-62 0)
(-9.84754e-62 4.75612e-62 0)
(-5.16339e-60 2.84142e-60 0)
(-2.77713e-58 1.50003e-58 0)
(-1.32956e-56 8.1877e-57 0)
(-6.6631e-55 3.91198e-55 0)
(-2.86604e-53 1.9967e-53 0)
(-1.34087e-51 8.55524e-52 0)
(-5.11817e-50 4.09506e-50 0)
(-2.24093e-48 1.55363e-48 0)
(-7.45963e-47 7.00094e-47 0)
(-3.06732e-45 2.31043e-45 0)
(-8.68311e-44 9.85544e-44 0)
(-3.37084e-42 2.75791e-42 0)
(-7.81151e-41 1.12321e-40 0)
(-2.88722e-39 2.56565e-39 0)
(-5.14164e-38 1.01293e-37 0)
(-1.83092e-36 1.78397e-36 0)
(-2.156e-35 7.04915e-35 0)
(-7.19848e-34 8.72285e-34 0)
(5.61155e-34 -1.14012e-31 0)
(-2.81375e-34 -2.1636e-33 0)
(-6.20525e-36 -2.79138e-35 0)
(-6.12833e-37 -2.77215e-37 0)
(-1.46256e-38 -9.90742e-40 0)
(-8.9566e-40 2.08975e-41 0)
(-2.1856e-41 1.75157e-42 0)
(-9.97606e-43 4.48999e-44 0)
(-2.39518e-44 1.69173e-45 0)
(-8.78955e-46 3.96537e-47 0)
(-2.03346e-47 1.23744e-48 0)
(-6.27156e-49 2.74577e-50 0)
(-1.38149e-50 7.39835e-52 0)
(-3.6865e-52 1.91677e-53 0)
(-7.607e-54 4.30349e-54 0)
(-1.77787e-55 2.99181e-55 0)
(2.10154e-57 3.79176e-54 0)
(1.43342e-55 4.68814e-58 0)
(2.70183e-57 -3.77751e-54 0)
(-7.1318e-56 -1.39232e-55 0)
(-2.68584e-57 -1.36238e-56 0)
(-2.56666e-58 -4.42786e-58 0)
(-8.44807e-60 -2.32622e-59 0)
(-4.34263e-61 -6.71683e-61 0)
(-1.26096e-62 -2.49544e-62 0)
(-4.45496e-64 -5.89812e-64 0)
(8.03913e-64 3.07491e-63 0)
(4.42468e-62 1.78603e-61 0)
(2.45271e-60 9.41951e-60 0)
(1.20196e-58 5.05893e-58 0)
(6.20394e-57 2.41867e-56 0)
(2.72009e-55 1.2104e-54 0)
(1.31004e-53 5.20007e-53 0)
(5.06858e-52 2.42949e-51 0)
(2.28378e-50 9.26484e-50 0)
(7.64462e-49 4.05125e-48 0)
(3.23378e-47 1.34793e-46 0)
(9.0927e-46 5.53611e-45 0)
(3.62902e-44 1.56768e-43 0)
(8.17476e-43 6.08023e-42 0)
(3.10094e-41 1.41175e-40 0)
(5.12932e-40 5.21741e-39 0)
(1.86855e-38 9.36344e-38 0)
(1.82113e-37 3.34815e-36 0)
(6.38467e-36 4.09624e-35 0)
(5.61323e-34 -2.25239e-33 0)
(-2.81888e-34 -5.70866e-35 0)
(-6.24167e-36 -8.44705e-37 0)
(-6.36033e-37 -3.52031e-39 0)
(-1.54154e-38 1.30699e-39 0)
(-9.69976e-40 4.68147e-41 0)
(-2.41408e-41 3.26125e-42 0)
(-1.12891e-42 9.47513e-44 0)
(-2.76938e-44 4.40194e-45 0)
(-1.03931e-45 1.16649e-46 0)
(-2.4584e-47 4.23836e-48 0)
(-7.74468e-49 1.03921e-49 0)
(-1.74418e-50 3.14254e-51 0)
(-4.74897e-52 7.15906e-53 0)
(-1.01008e-53 1.93047e-54 0)
(-2.42465e-55 4.44696e-56 0)
(-4.74012e-57 6.55453e-56 0)
(2.63146e-57 2.57376e-59 0)
(4.93507e-59 -6.4402e-56 0)
(-1.36057e-57 -2.42428e-57 0)
(-5.0979e-59 -2.31339e-58 0)
(-4.75254e-60 -7.61292e-60 0)
(-1.55246e-61 -3.91168e-61 0)
(-7.78198e-63 -1.13569e-62 0)
(-1.93431e-64 -3.9893e-64 0)
(1.73743e-63 9.04151e-64 0)
(1.00614e-61 5.30053e-62 0)
(5.29858e-60 3.10241e-60 0)
(2.84153e-58 1.63761e-58 0)
(1.35662e-56 8.94263e-57 0)
(6.77919e-55 4.27195e-55 0)
(2.90873e-53 2.18169e-53 0)
(1.35704e-51 9.34576e-52 0)
(5.1696e-50 4.47674e-50 0)
(2.25744e-48 1.69795e-48 0)
(7.50607e-47 7.6585e-47 0)
(3.07897e-45 2.52657e-45 0)
(8.71919e-44 1.07904e-43 0)
(3.37808e-42 3.01837e-42 0)
(7.85256e-41 1.23121e-40 0)
(2.8987e-39 2.81122e-39 0)
(5.20689e-38 1.1122e-37 0)
(1.85379e-36 1.95842e-36 0)
(2.2275e-35 7.76181e-35 0)
(7.42187e-34 9.6163e-34 0)
(-6.06067e-34 -1.7651e-33 0)
(2.5021e-34 -3.60421e-35 0)
(4.0549e-36 1.12912e-35 0)
(-5.11489e-37 3.71293e-37 0)
(-2.04254e-38 3.04566e-38 0)
(-2.43593e-39 8.80667e-40 0)
(-7.44944e-41 4.80778e-41 0)
(-4.62115e-42 1.32158e-42 0)
(-1.29126e-43 5.60428e-44 0)
(-5.76513e-45 1.45732e-45 0)
(-1.49821e-46 5.09073e-47 0)
(-5.33263e-48 1.24505e-48 0)
(-1.29195e-49 3.71262e-50 0)
(-3.85797e-51 8.50733e-52 0)
(-8.70972e-53 2.2177e-53 0)
(-2.24979e-54 4.74942e-55 0)
(-4.72771e-56 1.22339e-56 0)
(-1.03397e-57 2.19844e-58 0)
(-2.02234e-59 -1.22394e-57 0)
(-2.22296e-59 -4.59257e-59 0)
(-8.38766e-61 -4.28185e-60 0)
(-7.55658e-62 -1.39868e-61 0)
(-2.4874e-63 -7.00963e-63 0)
(-1.05532e-64 -2.01706e-64 0)
(1.01285e-63 -2.41978e-65 0)
(5.88884e-62 -1.07057e-63 0)
(3.44668e-60 -6.20207e-62 0)
(1.81929e-58 -3.62519e-60 0)
(9.93457e-57 -1.91385e-58 0)
(4.74566e-55 -1.04338e-56 0)
(2.42355e-53 -4.98592e-55 0)
(1.03814e-51 -2.54106e-53 0)
(4.9727e-50 -1.0891e-51 0)
(1.88595e-48 -5.20358e-50 0)
(8.50616e-47 -1.97514e-48 0)
(2.80597e-45 -8.88022e-47 0)
(1.19832e-43 -2.93252e-45 0)
(3.35153e-42 -1.24722e-43 0)
(1.36697e-40 -3.49019e-42 0)
(3.11924e-39 -1.41194e-40 0)
(1.23274e-37 -3.15685e-39 0)
(2.15412e-36 -1.16645e-37 0)
(8.45961e-35 -1.09639e-36 0)
(9.77882e-34 1.12028e-35 0)
(3.88714e-32 5.26572e-33 0)
(-2.65956e-33 -1.17028e-31 0)
(-3.79107e-33 -1.62934e-33 0)
(-1.112e-34 5.54001e-34 0)
(-1.54206e-35 1.53274e-35 0)
(-4.53264e-37 1.27207e-36 0)
(-3.5001e-38 3.35581e-38 0)
(-1.00308e-39 1.86139e-39 0)
(-5.44962e-41 4.80666e-41 0)
(-1.49448e-42 2.0656e-42 0)
(-6.32486e-44 5.12888e-44 0)
(-1.64233e-45 1.81055e-45 0)
(-5.7293e-47 4.27364e-47 0)
(-1.39979e-48 1.28447e-48 0)
(-4.16987e-50 2.86232e-50 0)
(-9.54766e-52 7.50283e-52 0)
(-2.48683e-53 1.57127e-53 0)
(-5.32172e-55 3.65333e-55 0)
(-1.23206e-56 7.16665e-57 0)
(-2.45928e-58 1.29908e-58 0)
(-5.49607e-60 1.99222e-60 0)
(-1.09431e-61 -1.61343e-62 0)
(-3.05409e-63 -1.35331e-63 0)
(-7.24801e-65 -9.43284e-65 0)
(-2.09407e-65 -3.86609e-66 0)
(-1.15877e-63 -6.05079e-65 0)
(-6.71427e-62 -3.79649e-63 0)
(-3.92591e-60 -2.19995e-61 0)
(-2.07268e-58 -1.28733e-59 0)
(-1.13041e-56 -6.79599e-58 0)
(-5.40174e-55 -3.70997e-56 0)
(-2.75425e-53 -1.77256e-54 0)
(-1.18039e-51 -9.04868e-53 0)
(-5.64282e-50 -3.87699e-51 0)
(-2.14155e-48 -1.85611e-49 0)
(-9.63475e-47 -7.04157e-48 0)
(-3.18098e-45 -3.17369e-46 0)
(-1.35415e-43 -1.04708e-44 0)
(-3.79125e-42 -4.46342e-43 0)
(-1.53999e-40 -1.24036e-41 0)
(-3.51811e-39 -4.92464e-40 0)
(-1.38289e-37 -9.06369e-39 0)
(-2.41924e-36 -1.15438e-37 0)
(-9.43003e-35 3.16474e-35 0)
(-1.09065e-33 3.50322e-33 0)
(-4.28469e-32 2.85505e-31 0)
(-2.17458e-31 1.28445e-31 0)
(-2.27745e-31 2.45329e-33 0)
(-4.88402e-33 3.23235e-35 0)
(-7.03514e-34 3.30939e-37 0)
(-1.7938e-35 2.10449e-39 0)
(-1.42171e-36 3.81166e-43 0)
(-3.73653e-38 -8.65325e-43 0)
(-2.07078e-39 -2.3495e-44 0)
(-5.34781e-41 -8.88306e-46 0)
(-2.29872e-42 -2.06322e-47 0)
(-5.7086e-44 -6.35767e-49 0)
(-2.01548e-45 -1.39966e-50 0)
(-4.75789e-47 -3.72811e-52 0)
(-1.43011e-48 -7.75223e-54 0)
(-3.18709e-50 -1.82207e-55 0)
(-8.35433e-52 -3.56088e-57 0)
(-1.74966e-53 -7.45498e-59 0)
(-4.06787e-55 -1.37042e-60 0)
(-7.98039e-57 -3.63973e-61 0)
(-1.66579e-58 -1.32801e-62 0)
(-3.05369e-60 -1.13923e-63 0)
(-5.77449e-62 -3.71528e-65 0)
(-9.88118e-64 -1.75814e-66 0)
(-6.79566e-65 4.58754e-67 0)
(-3.20088e-63 3.22267e-65 0)
(-1.85467e-61 2.02492e-63 0)
(-1.08517e-59 1.17337e-61 0)
(-5.72884e-58 6.86299e-60 0)
(-3.12702e-56 3.62321e-58 0)
(-1.49405e-54 1.97683e-56 0)
(-7.62571e-53 9.44587e-55 0)
(-3.26735e-51 4.81868e-53 0)
(-1.56393e-49 2.06495e-51 0)
(-5.93322e-48 9.87755e-50 0)
(-2.67354e-46 3.74815e-48 0)
(-8.82257e-45 1.68749e-46 0)
(-3.76319e-43 5.56791e-45 0)
(-1.05293e-41 2.36784e-43 0)
(-4.28771e-40 6.53339e-42 0)
(-9.78784e-39 2.51488e-40 0)
(-3.86003e-37 3.33894e-39 0)
(-6.74696e-36 -1.34855e-37 0)
(-2.64187e-34 -3.91975e-35 0)
(-3.05332e-33 -3.99086e-33 0)
(-1.20825e-31 -3.1041e-31 0)
(-3.29435e-33 3.72344e-31 0)
(-3.47278e-33 6.49247e-33 0)
(-1.04154e-34 -4.89506e-34 0)
(-1.47261e-35 -1.46596e-35 0)
(-4.36662e-37 -1.26703e-36 0)
(-3.39868e-38 -3.35357e-38 0)
(-9.78312e-40 -1.8621e-39 0)
(-5.33684e-41 -4.80892e-41 0)
(-1.4674e-42 -2.06648e-42 0)
(-6.2257e-44 -5.13094e-44 0)
(-1.6194e-45 -1.81118e-45 0)
(-5.65869e-47 -4.27504e-47 0)
(-1.38425e-48 -1.28484e-48 0)
(-4.12847e-50 -2.86309e-50 0)
(-9.46156e-52 -7.50465e-52 0)
(-2.46659e-53 -1.57163e-53 0)
(-5.28217e-55 -3.65388e-55 0)
(-1.22382e-56 -7.16802e-57 0)
(-2.4442e-58 -1.49623e-58 0)
(-5.09295e-60 -2.74283e-60 0)
(-9.47178e-62 -5.18677e-62 0)
(-1.79032e-63 -8.86834e-64 0)
(-3.06924e-65 -1.52768e-65 0)
(1.68176e-65 1.2188e-66 0)
(1.09047e-63 9.25916e-65 0)
(6.31866e-62 5.81954e-63 0)
(3.69686e-60 3.37226e-61 0)
(1.95152e-58 1.97314e-59 0)
(1.06516e-56 1.04166e-57 0)
(5.08892e-55 5.68587e-56 0)
(2.59727e-53 2.71667e-54 0)
(1.11279e-51 1.38663e-52 0)
(5.32614e-50 5.94138e-51 0)
(2.02055e-48 2.84395e-49 0)
(9.10435e-47 1.07897e-47 0)
(3.00432e-45 4.86192e-46 0)
(1.28144e-43 1.60403e-44 0)
(3.58544e-42 6.8331e-43 0)
(1.46004e-40 1.89378e-41 0)
(3.33307e-39 7.43717e-40 0)
(1.31448e-37 1.23217e-38 0)
(2.29789e-36 -3.0025e-38 0)
(8.99802e-35 -7.20249e-35 0)
(1.04026e-33 -7.59621e-33 0)
(4.11637e-32 -6.02476e-31 0)
(-1.23425e-33 1.32492e-31 0)
(5.65178e-34 2.54911e-33 0)
(1.10559e-35 2.25436e-35 0)
(1.78621e-37 -1.45143e-38 0)
(-3.88278e-39 -2.72716e-38 0)
(-1.42563e-39 -8.55467e-40 0)
(-4.97774e-41 -4.78398e-41 0)
(-3.496e-42 -1.31874e-42 0)
(-1.02072e-43 -5.5967e-44 0)
(-4.77478e-45 -1.4557e-45 0)
(-1.26892e-46 -5.08578e-47 0)
(-4.62698e-48 -1.24399e-48 0)
(-1.13649e-49 -3.70978e-50 0)
(-3.44401e-51 -8.50151e-52 0)
(-7.84836e-53 -2.21621e-53 0)
(-2.04738e-54 -4.74583e-55 0)
(-4.33212e-56 -1.09954e-56 0)
(-9.94585e-58 -2.19597e-58 0)
(-1.9536e-59 -4.57576e-60 0)
(-4.00636e-61 -8.50998e-62 0)
(-7.30076e-63 -1.60857e-63 0)
(-1.35112e-64 -2.78234e-65 0)
(-1.46236e-66 -4.87646e-67 0)
(5.18887e-65 -5.1714e-67 0)
(3.26347e-63 -3.22512e-65 0)
(1.89099e-61 -2.02679e-63 0)
(1.1064e-59 -1.17439e-61 0)
(5.84061e-58 -6.87092e-60 0)
(3.18798e-56 -3.62706e-58 0)
(1.5231e-54 -1.97967e-56 0)
(7.77395e-53 -9.45816e-55 0)
(3.3307e-51 -4.82724e-53 0)