/*--------------------------------*- C++ -*----------------------------------*\
| =========                 |                                                 |
| \\      /  F ield         | OpenFOAM: The Open Source CFD Toolbox           |
|  \\    /   O peration     | Version:  2.4.0                                 |
|   \\  /    A nd           | Web:      www.OpenFOAM.org                      |
|    \\/     M anipulation  |                                                 |
\*---------------------------------------------------------------------------*/
FoamFile
{
    version     2.0;
    format      ascii;
    class       volScalarField;
    location    "0.45";
    object      p_rgh;
}
// * * * * * * * * * * * * * * * * * * * * * * * * * * * * * * * * * * * * * //

dimensions      [1 -1 -2 0 0 0 0];

internalField   uniform 0;

boundaryField
{
    leftWall
    {
        type            fixedFluxPressure;
        gradient        uniform 0;
        value           uniform 0;
    }
    rightWall
    {
        type            fixedFluxPressure;
        gradient        uniform 0;
        value           uniform 0;
    }
    lowerWall
    {
        type            fixedFluxPressure;
        gradient        uniform 0;
        value           uniform 0;
    }
    atmosphere
    {
        type            totalPressure;
        rho             rho;
        psi             none;
        gamma           1;
        p0              uniform 0;
        value           nonuniform List<scalar> 
90
(
-1.90903e-65
-2.00478e-67
-3.55597e-69
-2.25972e-71
-2.14724e-73
-1.25294e-75
-8.82511e-78
-4.54787e-80
-2.49386e-82
-1.10563e-84
-4.92456e-87
-1.88319e-89
-7.039e-92
-2.343e-94
-7.52011e-97
-2.19966e-99
-6.16392e-102
-1.5983e-104
-3.95954e-107
-9.1723e-110
-2.02837e-112
-4.04852e-115
0
0
0
0
0
0
0
0
0
0
0
0
0
0
0
0
0
0
0
0
0
0
0
0
0
0
0
0
0
0
0
0
0
0
0
0
0
0
0
0
0
0
0
0
0
0
0
0
0
0
0
0
0
0
0
0
0
0
0
0
0
0
0
0
0
0
0
-1.25217e-172
)
;
    }
    defaultFaces
    {
        type            empty;
    }
}


// ************************************************************************* //
