/*--------------------------------*- C++ -*----------------------------------*\
| =========                 |                                                 |
| \\      /  F ield         | OpenFOAM: The Open Source CFD Toolbox           |
|  \\    /   O peration     | Version:  2.4.0                                 |
|   \\  /    A nd           | Web:      www.OpenFOAM.org                      |
|    \\/     M anipulation  |                                                 |
\*---------------------------------------------------------------------------*/
FoamFile
{
    version     2.0;
    format      ascii;
    class       surfaceScalarField;
    location    "0.45";
    object      phi;
}
// * * * * * * * * * * * * * * * * * * * * * * * * * * * * * * * * * * * * * //

dimensions      [0 3 -1 0 0 0 0];

internalField   nonuniform List<scalar> 
15214
(
1.75937e-39
2.79661e-41
1.05428e-38
1.99649e-40
1.45813e-38
1.9685e-39
4.51559e-37
1.61758e-39
1.97303e-41
-3.81556e-39
-4.51382e-37
-3.81316e-39
-1.26618e-38
1.64746e-39
1.78015e-39
2.19585e-39
2.3542e-38
2.37043e-39
4.67919e-37
3.64366e-39
4.64021e-37
-1.96607e-39
-4.24496e-37
-5.43314e-39
1.24812e-38
1.61757e-39
4.53495e-37
3.58604e-39
1.47585e-38
-1.64771e-39
1.05636e-38
-1.97117e-39
1.76197e-39
-1.99893e-40
1.57599e-40
-2.74893e-41
1.81918e-41
-2.42148e-42
1.53956e-42
-2.41653e-43
1.43976e-43
-1.93156e-44
1.122e-44
-1.61608e-45
9.09537e-46
-1.17939e-46
1.29839e-46
-8.1023e-48
9.13863e-46
8.14088e-48
1.12801e-44
1.18483e-46
1.44815e-43
1.62418e-45
1.54986e-42
1.94248e-44
1.83245e-41
2.4315e-43
1.58993e-40
2.43916e-42
1.7786e-39
2.77114e-41
1.07027e-38
2.0207e-40
1.63598e-38
1.9962e-39
4.6226e-37
1.81963e-39
1.63598e-38
-1.81963e-39
1.07027e-38
-1.9962e-39
1.7786e-39
-2.0207e-40
1.58993e-40
-2.77114e-41
1.83245e-41
-2.43916e-42
1.54986e-42
-2.4316e-43
1.44781e-43
-1.95315e-44
1.10885e-44
-2.52194e-45
-2.70905e-46
-8.05846e-45
-9.21481e-46
-4.16823e-44
1.22335e-45
-2.74281e-43
-2.9788e-44
3.33645e-40
-2.88157e-41
2.02844e-39
-2.58319e-40
1.71706e-38
-2.47442e-39
2.94468e-38
-2.01645e-39
4.27126e-42
4.78563e-39
-2.94088e-38
4.78277e-39
-1.68019e-38
-2.05276e-39
3.38949e-40
-2.76662e-39
1.89027e-38
-2.99455e-39
4.6956e-38
-4.56087e-39
3.18439e-38
2.47154e-39
-9.87482e-39
6.80208e-39
2.40133e-39
-2.01645e-39
2.98191e-38
-4.49084e-39
1.72086e-38
2.05303e-39
2.033e-39
2.47758e-39
3.35031e-40
2.58782e-40
3.37492e-41
3.34549e-41
3.92041e-42
2.87448e-42
3.51081e-43
2.73938e-43
3.31727e-44
2.13311e-44
2.67134e-45
1.73234e-45
2.18853e-46
1.23929e-46
3.19262e-47
8.3549e-48
2.19926e-46
-8.3935e-48
2.6861e-45
-1.24481e-46
3.33743e-44
-1.74069e-45
3.53532e-43
-2.14461e-44
3.95088e-42
-2.75545e-43
3.40667e-41
-2.89406e-42
3.38595e-40
-3.37072e-41
2.06276e-39
-2.61379e-40
1.75092e-38
-2.50812e-39
3.15092e-38
-2.27781e-39
1.75092e-38
2.27781e-39
2.06276e-39
2.50812e-39
3.38595e-40
2.61379e-40
3.40667e-41
3.37072e-41
3.95087e-42
2.89405e-42
3.53482e-43
2.7545e-43
3.29361e-44
2.04166e-44
2.63485e-46
-7.00524e-45
-1.4885e-44
-7.8207e-44
-1.26569e-44
-4.17397e-43
1.52758e-44
-2.78607e-42
-3.0107e-43
5.97611e-41
-6.22843e-42
2.56665e-40
-5.41267e-41
1.59212e-39
-4.37486e-40
2.62327e-39
-3.41875e-40
9.87069e-43
8.41449e-40
-2.6154e-39
8.40785e-40
-1.52554e-39
-3.49813e-40
6.0608e-41
-4.98981e-40
1.79704e-39
-5.46541e-40
4.27589e-39
-7.94629e-40
2.94643e-39
4.36812e-40
-7.0699e-40
1.18332e-39
3.24145e-40
-3.41874e-40
2.69064e-39
-7.79351e-40
1.59997e-39
3.49879e-40
2.57677e-40
4.38222e-40
5.97076e-41
5.42305e-41
6.87449e-42
7.27496e-42
9.01088e-43
6.69769e-43
8.60336e-44
6.52623e-44
8.59006e-45
5.28078e-45
7.16153e-46
4.35863e-46
6.0425e-47
3.19615e-47
8.99336e-48
2.17949e-48
6.07319e-47
-2.18985e-48
7.20305e-46
-3.21082e-47
8.64563e-45
-4.38042e-46
8.6689e-44
-5.31039e-45
9.08953e-43
-6.56659e-44
6.95182e-42
-6.74609e-43
6.05213e-41
-7.33488e-42
2.63633e-40
-5.48341e-41
1.65264e-39
-4.44816e-40
2.8868e-39
-3.96703e-40
1.65264e-39
3.96703e-40
2.63633e-40
4.44816e-40
6.05213e-41
5.48341e-41
6.95181e-42
7.33487e-42
9.08893e-43
6.7453e-43
8.61664e-44
6.48011e-44
4.05284e-45
-4.16441e-45
-2.49272e-44
-8.09733e-44
-1.62228e-43
-7.41383e-43
-1.3685e-43
-4.02427e-42
1.62486e-43
-2.74072e-41
-2.9352e-42
7.38094e-42
-1.51282e-42
2.41418e-41
-1.09287e-41
1.12169e-40
-8.3208e-41
1.77273e-40
-6.41501e-41
1.46105e-43
1.5997e-40
-1.76181e-40
1.59817e-40
-1.03872e-40
-6.58912e-41
7.48477e-42
-9.56887e-41
1.30061e-40
-1.05151e-40
2.9691e-40
-1.50679e-40
2.09694e-40
8.30271e-41
-3.25363e-41
2.24116e-40
3.25669e-41
-6.4146e-41
1.85687e-40
-1.47326e-40
1.13258e-40
6.5907e-41
2.42875e-41
8.33525e-41
7.35215e-42
1.09165e-41
9.44966e-43
1.59243e-42
1.32749e-43
1.54218e-43
1.33407e-44
1.57731e-44
1.37459e-45
1.31803e-45
1.17957e-46
1.11782e-46
1.01384e-47
8.35824e-48
1.53659e-48
5.78512e-49
1.01915e-47
-5.81325e-49
1.18666e-46
-8.39767e-48
1.3839e-45
-1.12361e-46
1.34484e-44
-1.32576e-45
1.34004e-43
-1.58764e-44
9.56911e-43
-1.55423e-43
7.47132e-42
-1.60687e-42
2.5097e-41
-1.10547e-41
1.19638e-40
-8.47881e-41
2.02355e-40
-7.51994e-41
1.19638e-40
7.51994e-41
2.5097e-41
8.47881e-41
7.47131e-42
1.10547e-41
9.56858e-43
1.60682e-42
1.33421e-43
1.54772e-43
8.38618e-45
8.71278e-45
-4.36436e-44
-7.81206e-44
-2.54708e-43
-6.92396e-43
-1.63662e-42
-6.42203e-42
-1.38777e-42
-3.57448e-41
1.61835e-42
-2.47998e-40
-2.64574e-41
9.17761e-43
-1.67103e-42
2.18431e-42
-1.92256e-42
5.84899e-42
-1.12684e-41
8.3036e-42
-8.37765e-42
2.15446e-44
2.11408e-41
-8.1521e-42
2.11227e-41
-4.79735e-42
-8.60022e-42
9.3906e-43
-1.2786e-41
7.25184e-42
-1.4112e-41
1.50841e-41
-1.98478e-41
1.15222e-41
1.09851e-41
7.85135e-43
2.94873e-41
3.24144e-42
-8.34016e-42
9.36695e-42
-1.9349e-41
5.99492e-42
8.60267e-42
2.19598e-42
1.10357e-41
9.19789e-43
1.54087e-42
1.28365e-43
2.36286e-43
1.92914e-44
2.39427e-44
2.01308e-45
2.5236e-45
2.13813e-46
2.16936e-46
1.87434e-47
1.8738e-47
1.63835e-48
1.42666e-48
2.51536e-49
9.98443e-50
1.64711e-48
-1.0034e-49
1.88593e-47
-1.43355e-48
2.15315e-46
-1.88378e-47
2.03018e-45
-2.18255e-46
1.94863e-44
-2.5409e-45
1.30161e-43
-2.41406e-44
9.3703e-43
-2.3859e-43
2.30462e-42
-1.56225e-42
6.7823e-42
-1.12477e-41
1.06044e-41
-9.90219e-42
6.7823e-42
9.90219e-42
2.30462e-42
1.12476e-41
9.36985e-43
1.56222e-42
1.29673e-43
2.38197e-43
1.41404e-44
1.91017e-44
-4.48979e-44
-5.35615e-44
-4.24191e-43
-6.32863e-43
-2.44452e-42
-5.62522e-42
-1.60402e-41
-5.35879e-41
-1.36955e-41
-3.08471e-40
1.56496e-41
-2.20689e-39
-2.32588e-40
1.92436e-45
-1.32252e-41
2.81328e-43
-3.61574e-42
2.24959e-43
-3.75684e-42
1.74933e-43
-1.42064e-42
4.9821e-45
2.74418e-42
-1.41108e-43
2.78847e-42
-7.49656e-44
-1.13187e-42
1.03614e-43
-1.70087e-42
2.963e-43
-1.88078e-42
4.53765e-43
-2.62171e-42
4.63497e-43
1.45266e-42
3.39096e-43
3.89151e-42
3.0694e-43
-1.0938e-42
2.77502e-43
-2.54998e-42
2.08918e-43
1.13162e-42
1.90991e-43
1.46017e-42
1.01252e-43
2.10721e-43
1.50386e-44
3.3923e-44
2.36014e-45
3.54839e-45
2.54101e-46
3.84751e-46
2.75752e-47
3.37661e-47
2.4636e-48
2.96461e-48
2.18186e-49
2.28663e-49
3.39097e-50
1.61507e-50
2.19376e-49
-1.62321e-50
2.47921e-48
-2.29787e-49
2.7775e-47
-2.98075e-48
2.56345e-46
-3.39773e-47
2.38521e-45
-3.87484e-46
1.52647e-44
-3.57916e-45
1.03353e-43
-3.42735e-44
2.03614e-43
-2.13879e-43
2.94622e-43
-1.49048e-42
3.62501e-43
-1.30765e-42
2.9462e-43
1.30765e-42
2.03586e-43
1.49046e-42
1.02993e-43
2.13682e-43
1.12571e-44
3.16982e-44
-4.20242e-44
-2.98499e-44
-3.95098e-43
-3.76883e-43
-3.63953e-42
-4.33635e-42
-2.1456e-41
-3.95217e-41
-1.43704e-40
-3.88013e-40
-1.23629e-40
-2.34686e-39
1.37655e-40
-1.72183e-38
-1.81503e-39
-8.05319e-43
-1.06791e-40
9.32062e-43
-2.87403e-41
3.23689e-43
-2.02508e-41
1.27148e-43
-2.90514e-42
2.28132e-44
-1.25102e-43
3.11359e-44
2.72538e-43
1.82736e-44
-1.33301e-43
1.14791e-44
-1.95813e-43
3.54527e-45
-2.16576e-43
-1.91234e-44
-2.9874e-43
4.9632e-45
1.65854e-43
5.13083e-44
4.43057e-43
3.07909e-44
-1.23651e-43
-1.23984e-44
-2.89947e-43
-2.97614e-45
1.28292e-43
1.79535e-44
1.66801e-43
1.11571e-44
2.49226e-44
1.72182e-45
4.14951e-45
2.79215e-46
4.46495e-46
3.07215e-47
4.94234e-47
3.39212e-48
4.41898e-48
3.07242e-49
3.92973e-49
2.74953e-50
3.06814e-50
4.31065e-51
2.18378e-51
2.76475e-50
-2.19495e-51
3.09225e-49
-3.08346e-50
3.41728e-48
-3.95156e-49
3.10011e-47
-4.4473e-48
2.82296e-46
-4.97853e-47
1.74909e-45
-4.50516e-46
1.1405e-44
-4.19445e-45
1.93893e-44
-2.53188e-44
6.3974e-45
-1.70495e-43
-6.16409e-45
-1.48966e-43
6.38094e-45
1.4896e-43
1.91732e-44
1.70412e-43
8.62882e-45
2.4123e-44
-2.95001e-44
-1.16275e-44
-3.52027e-43
-2.08497e-43
-3.19516e-42
-2.40151e-42
-3.01963e-41
-2.84016e-41
-1.83445e-40
-2.67892e-40
-1.27093e-39
-2.76391e-39
-1.10394e-39
-1.78763e-38
1.19565e-39
-1.38363e-37
-1.42714e-38
-4.80313e-42
-8.55684e-40
9.53727e-42
-2.17127e-40
3.0665e-42
-1.5091e-40
1.3477e-42
-2.03804e-41
1.94472e-43
-3.09838e-42
3.49198e-44
-2.83492e-43
6.19437e-45
-4.82647e-44
1.51932e-45
-2.4846e-44
-8.64802e-46
-2.45636e-44
-4.87877e-45
-3.33431e-44
-1.45321e-45
1.85148e-44
5.78373e-45
4.93904e-44
2.9954e-45
-1.37214e-44
-3.07344e-45
-3.22905e-44
-1.41422e-45
1.42673e-44
1.68354e-45
1.86297e-44
1.13586e-45
2.84539e-45
1.80548e-46
4.87064e-46
2.99386e-47
5.34748e-47
3.35602e-48
6.0198e-48
3.7547e-49
5.45628e-49
3.44283e-50
4.90202e-50
3.10727e-51
3.86126e-51
4.91101e-52
2.76451e-52
3.12469e-51
-2.77878e-52
3.46541e-50
-3.88077e-51
3.78311e-49
-4.92966e-50
3.38732e-48
-5.49191e-49
3.02792e-47
-6.06492e-48
1.83523e-46
-5.39708e-47
1.16237e-45
-4.92531e-46
1.83337e-45
-2.89276e-45
-4.66142e-46
-1.90623e-44
-2.59325e-45
-1.66151e-44
-5.71429e-46
1.65895e-44
4.40316e-46
1.87042e-44
-1.6938e-44
-2.3628e-45
-2.06303e-43
-6.98492e-44
-2.36925e-42
-9.43771e-43
-2.19937e-41
-1.10923e-41
-2.13606e-40
-1.35411e-40
-1.35159e-39
-1.34798e-39
-9.64696e-39
-1.48327e-38
-8.46488e-39
-1.07916e-37
8.80737e-39
-8.64661e-37
-9.03039e-38
8.03032e-42
-5.76421e-39
1.02794e-40
-1.59919e-39
2.9353e-41
-1.17557e-39
1.19381e-41
-1.51205e-40
1.651e-42
-2.23452e-41
2.50784e-43
-2.1864e-42
2.65536e-44
-2.28769e-43
2.92164e-45
-2.14506e-44
1.05796e-46
-4.14711e-45
-5.83556e-46
-3.53221e-45
-2.22922e-46
1.88695e-45
5.966e-46
5.0481e-45
2.91608e-46
-1.39591e-45
-3.78938e-46
-3.29783e-45
-1.86244e-46
1.45432e-45
1.60896e-46
1.90856e-45
1.12888e-46
2.97978e-46
1.8292e-47
5.20432e-47
3.08403e-48
5.81688e-48
3.50419e-49
6.63295e-49
3.96085e-50
6.0857e-50
3.66512e-51
5.51258e-51
3.32943e-52
4.37737e-52
5.29326e-53
3.14943e-53
3.34827e-52
-3.16584e-53
3.68946e-51
-4.39972e-52
3.99126e-50
-5.54408e-51
3.53747e-49
-6.12608e-50
3.11988e-48
-6.68369e-49
1.86015e-47
-5.87222e-48
1.15602e-46
-5.2646e-47
1.75838e-46
-3.03142e-46
-9.53151e-47
-1.95504e-45
-3.81124e-46
-1.70503e-45
-7.33578e-46
1.6006e-45
-8.36983e-45
4.75583e-46
-1.1289e-43
-2.17867e-44
-1.31262e-42
-3.00336e-43
-1.54755e-41
-4.14245e-42
-1.47908e-40
-5.0142e-41
-1.49946e-39
-6.47224e-40
-9.95495e-39
-6.948e-39
-7.55495e-38
-8.57445e-38
-6.70951e-38
-7.25888e-37
6.74183e-38
-6.51757e-36
-6.41247e-37
8.10868e-40
-4.11283e-38
1.22818e-39
-9.30256e-39
2.68146e-40
-6.44163e-39
9.01191e-41
-7.94952e-40
1.18105e-41
-1.10103e-40
1.71297e-42
-1.03955e-41
1.74763e-43
-1.04151e-42
1.83268e-44
-8.62333e-44
1.57355e-45
-7.50738e-45
7.6765e-47
-9.20769e-46
-1.31331e-47
1.73766e-46
5.698e-47
5.65079e-46
2.69814e-47
-1.56632e-46
-3.77298e-47
-3.70638e-46
-1.89227e-47
1.63246e-46
1.47185e-47
2.14952e-46
1.0521e-47
3.40683e-47
1.73371e-48
6.04067e-48
2.95932e-49
6.83785e-49
3.40337e-50
7.87201e-50
3.87839e-51
7.28566e-51
3.61858e-52
6.63892e-52
3.30492e-53
5.30165e-53
5.28287e-54
3.82726e-54
3.32368e-53
-3.84733e-54
3.64264e-52
-5.32893e-53
3.90812e-51
-6.67724e-52
3.43539e-50
-7.33467e-51
2.99288e-49
-7.93329e-50
1.76106e-48
-6.90447e-49
1.07352e-47
-6.1129e-48
1.53808e-47
-3.46882e-47
-2.24603e-47
-2.20576e-46
-2.17486e-46
-1.9576e-46
-2.70844e-45
1.15446e-46
-3.63881e-44
-9.28418e-46
-4.8897e-43
-1.74118e-44
-5.80059e-42
-2.42683e-43
-7.01691e-41
-3.52973e-42
-6.96563e-40
-4.79402e-41
-7.35721e-39
-7.6692e-40
-5.22648e-38
-1.20274e-38
-4.15409e-37
-2.08107e-37
-3.72375e-37
-2.76044e-36
3.45785e-37
-2.57898e-35
-2.68011e-36
-1.39653e-39
-2.20629e-41
-8.6195e-39
-1.64325e-40
-1.20796e-38
-1.79239e-39
-4.10776e-37
-1.50227e-39
6.0076e-47
3.48258e-39
4.10776e-37
3.48258e-39
1.20796e-38
-1.50227e-39
8.6201e-39
-1.79239e-39
1.3964e-39
-1.64321e-40
1.1464e-40
-2.16699e-41
1.27013e-41
-1.758e-42
9.07025e-43
-1.68397e-43
-9.0706e-43
-2.48651e-44
-1.27018e-41
-1.68402e-43
-1.14647e-40
-1.75807e-42
-1.39649e-39
-2.16709e-41
-8.62111e-39
-1.64333e-40
-1.20924e-38
-1.79255e-39
-4.10892e-37
-1.50404e-39
-1.4092e-39
3.46074e-39
4.02041e-37
3.31649e-39
-1.4092e-39
-3.31649e-39
-4.10892e-37
-3.46074e-39
-1.20924e-38
1.50404e-39
-8.62111e-39
1.79255e-39
-1.3965e-39
1.64333e-40
-1.14736e-40
2.16699e-41
-1.37101e-41
1.7455e-42
-1.37865e-41
-9.20677e-46
-1.15642e-40
-1.75701e-42
-1.4082e-39
-2.18248e-41
-8.72295e-39
-1.65923e-40
-1.33732e-38
-1.81245e-39
-4.18103e-37
-1.64652e-39
-4.7531e-39
1.83445e-39
4.75301e-39
3.62845e-39
4.18102e-37
1.83444e-39
1.3361e-38
-1.64667e-39
8.65159e-39
-1.81366e-39
-1.76864e-40
-2.63887e-40
2.28856e-41
-1.66242e-39
2.12656e-40
-1.54873e-38
2.25345e-39
-2.69367e-38
1.87472e-39
2.98517e-47
-4.3695e-39
2.69367e-38
-4.3695e-39
1.54873e-38
1.87472e-39
1.66258e-39
2.25345e-39
2.64419e-40
2.12773e-40
2.45331e-41
2.62708e-41
2.72585e-42
2.08083e-42
2.06336e-43
1.90083e-43
-2.06344e-43
2.73811e-44
-2.72597e-42
1.90088e-43
-2.45346e-41
2.0809e-42
-2.6444e-40
2.62718e-41
-1.66281e-39
2.12787e-40
-1.549e-38
2.25364e-39
-2.69615e-38
1.87681e-39
-2.67167e-40
-4.34304e-39
2.52494e-38
-4.15463e-39
-2.67167e-40
4.15463e-39
-2.69615e-38
4.34304e-39
-1.549e-38
-1.87681e-39
-1.66281e-39
-2.25364e-39
-2.64441e-40
-2.12787e-40
-2.45553e-41
-2.62707e-41
-2.95565e-42
-2.06707e-42
-2.97309e-42
9.85354e-46
-2.47614e-41
2.07977e-42
-2.66941e-40
2.6446e-41
-1.68459e-39
2.14678e-40
-1.57297e-38
2.27782e-39
-2.83569e-38
2.06313e-39
-1.40671e-38
-2.30445e-39
1.40671e-38
-4.55982e-39
2.83567e-38
-2.30445e-39
1.57267e-38
2.06323e-39
1.66553e-39
2.27694e-39
1.68987e-40
-4.77181e-41
4.92985e-42
-2.11239e-40
4.46581e-41
-1.44155e-39
3.9953e-40
-2.41797e-39
3.20238e-40
-3.24075e-48
-7.7069e-40
2.41797e-39
-7.7069e-40
1.44155e-39
3.20238e-40
2.11249e-40
3.99529e-40
4.75779e-41
4.46843e-41
5.0255e-42
5.70505e-42
6.30122e-43
4.84824e-43
5.04684e-44
4.52051e-44
-5.04709e-44
6.77195e-45
-6.30155e-43
4.52064e-44
-5.02591e-42
4.84842e-43
-4.75832e-41
5.70531e-42
-2.11305e-40
4.46877e-41
-1.44219e-39
3.99574e-40
-2.42305e-39
3.20727e-40
-4.82138e-41
-7.6494e-40
2.20164e-39
-7.25517e-40
-4.82138e-41
7.25517e-40
-2.42305e-39
7.6494e-40
-1.44219e-39
-3.20727e-40
-2.11305e-40
-3.99574e-40
-4.75836e-41
-4.46876e-41
-5.03127e-42
-5.70505e-42
-6.86714e-43
-4.81421e-43
-6.91219e-43
2.469e-46
-5.08168e-42
4.84558e-43
-4.8158e-41
5.74658e-42
-2.15695e-40
4.51272e-41
-1.48468e-39
4.04791e-40
-2.58609e-39
3.59661e-40
-1.27343e-39
-4.10583e-40
1.27343e-39
-8.10558e-40
2.58607e-39
-4.10581e-40
1.48448e-39
3.59684e-40
2.1441e-40
4.04597e-40
3.53944e-41
-5.93332e-42
1.07855e-42
-1.99608e-41
8.99549e-42
-1.02145e-40
7.6073e-41
-1.65034e-40
6.02656e-41
-1.28478e-48
-1.46719e-40
1.65034e-40
-1.46719e-40
1.02145e-40
6.02657e-41
1.99602e-41
7.60731e-41
5.89696e-42
9.00363e-42
6.93504e-43
1.25301e-42
9.30468e-44
1.11925e-43
7.81424e-45
1.09602e-44
-7.81466e-45
1.6937e-45
-9.30523e-44
1.09605e-44
-6.93572e-43
1.1193e-43
-5.89781e-42
1.25308e-42
-1.9969e-41
9.00448e-42
-1.02239e-40
7.60841e-41
-1.65736e-40
6.03784e-41
-5.99092e-42
-1.45455e-40
1.44372e-40
-1.37603e-40
-5.99092e-42
1.37603e-40
-1.65736e-40
1.45455e-40
-1.02239e-40
-6.03784e-41
-1.9969e-41
-7.60841e-41
-5.89788e-42
-9.00448e-42
-6.94431e-43
-1.25301e-42
-1.01845e-43
-1.11074e-43
-1.02563e-43
6.33446e-47
-7.02235e-43
1.11857e-43
-5.98226e-42
1.26305e-42
-2.05685e-41
9.10544e-42
-1.07434e-40
7.72243e-41
-1.79706e-40
6.81181e-41
-8.74736e-41
-7.84985e-41
8.74734e-41
-1.54674e-40
1.79706e-40
-7.84982e-41
1.07437e-40
6.81196e-41
2.05791e-41
7.7159e-41
7.03702e-42
-7.51031e-43
1.59231e-43
-1.81045e-42
1.2708e-42
-5.42061e-42
1.00834e-41
-7.98241e-42
7.8638e-42
-3.77753e-49
-1.9425e-41
7.9824e-42
-1.9425e-41
5.42053e-42
7.8638e-42
1.80998e-42
1.00834e-41
7.42668e-43
1.27226e-42
9.45225e-44
1.8619e-43
1.35619e-44
1.74019e-44
1.17757e-45
1.75543e-45
-1.17764e-45
2.78976e-46
-1.35628e-44
1.75549e-45
-9.45334e-44
1.74027e-44
-7.42801e-43
1.86201e-43
-1.8113e-42
1.2724e-42
-5.43424e-42
1.00852e-41
-8.07825e-42
7.88134e-42
-7.56374e-43
-1.9237e-41
6.07658e-42
-1.81352e-41
-7.56374e-43
1.81352e-41
-8.07825e-42
1.9237e-41
-5.43424e-42
-7.88134e-42
-1.8113e-42
-1.00852e-41
-7.42812e-43
-1.2724e-42
-9.46673e-44
-1.8619e-43
-1.48933e-44
-1.72616e-44
-1.50048e-44
1.06045e-47
-9.58431e-44
1.73904e-44
-7.55064e-43
1.87794e-43
-1.89212e-42
1.28805e-42
-6.08106e-42
1.02538e-41
-9.13186e-42
8.96566e-42
-4.27108e-42
-1.04434e-41
4.2711e-42
-2.05428e-41
9.13232e-42
-1.04434e-41
6.0866e-42
8.96555e-42
1.92306e-42
1.02418e-41
9.82336e-43
-8.33211e-44
2.30197e-44
-1.57945e-43
1.73665e-43
-1.90218e-43
1.33504e-42
-1.88634e-43
1.0334e-42
-5.4772e-50
-2.57223e-42
1.88633e-43
-2.57223e-42
1.90206e-43
1.0334e-42
1.57856e-43
1.33507e-42
8.20827e-44
1.74102e-43
1.10974e-44
2.67829e-44
1.66171e-45
2.583e-45
1.4846e-46
2.68094e-46
-1.4847e-46
4.34713e-47
-1.66183e-45
2.68104e-46
-1.10988e-44
2.58313e-45
-8.20999e-44
2.67847e-44
-1.58023e-43
1.74123e-43
-1.91887e-43
1.33534e-42
-1.99898e-43
1.03601e-42
-8.3763e-44
-2.54517e-42
1.9513e-44
-2.39552e-42
-8.3763e-44
2.39552e-42
-1.99898e-43
2.54517e-42
-1.91887e-43
-1.03601e-42
-1.58023e-43
-1.33534e-42
-8.21013e-44
-1.74123e-43
-1.11161e-44
-2.67829e-44
-1.83008e-45
-2.56114e-45
-1.84441e-45
1.67752e-48
-1.12643e-44
2.58118e-45
-8.35975e-44
2.70273e-44
-1.6744e-43
1.76438e-43
-2.62705e-43
1.35951e-42
-2.73991e-43
1.18306e-42
-1.04849e-43
-1.38681e-42
1.04855e-43
-2.72424e-42
2.74082e-43
-1.38682e-42
2.63753e-43
1.18298e-42
1.73171e-43
1.3574e-42
1.32662e-43
-9.13261e-45
8.39145e-45
-1.48867e-44
1.83901e-44
2.50117e-45
1.52375e-43
1.86338e-44
1.17054e-43
1.05507e-49
-2.93941e-43
-1.86329e-44
-2.93939e-43
-2.49392e-45
1.17078e-43
1.48691e-44
1.52613e-43
9.06651e-45
2.06056e-44
1.2722e-45
3.27983e-45
1.96837e-46
3.25358e-46
1.79309e-47
3.44694e-47
-1.79321e-47
5.69264e-48
-1.96852e-46
3.44707e-47
-1.27238e-45
3.25375e-46
-9.06863e-45
3.28007e-45
-1.48893e-44
2.06085e-44
2.29479e-45
1.52648e-43
1.73405e-44
1.17406e-43
-9.26564e-45
-2.90625e-43
-3.47944e-44
-2.73005e-43
-9.26564e-45
2.73005e-43
1.73405e-44
2.90625e-43
2.29479e-45
-1.17406e-43
-1.48893e-44
-1.52648e-43
-9.06881e-45
-2.06084e-44
-1.27451e-45
-3.27982e-45
-2.17223e-46
-3.22495e-46
-2.18983e-46
2.22197e-49
-1.29241e-45
3.25117e-46
-9.24561e-45
3.31119e-45
-1.59624e-44
2.08993e-44
-5.4793e-45
1.55599e-43
1.1737e-44
1.34697e-43
9.38985e-45
-1.58945e-43
-9.3887e-45
-3.11855e-43
-1.17226e-44
-1.58946e-43
5.63863e-45
1.34682e-43
1.68196e-44
1.55303e-43
1.55458e-44
1.85138e-45
-5.4311e-46
-1.14757e-45
-1.82772e-44
1.37243e-45
1.4912e-44
3.57692e-45
1.28305e-44
1.17665e-48
-3.28588e-44
-3.56526e-45
-3.2847e-44
-1.25968e-45
1.30106e-44
1.39613e-45
1.70529e-44
9.24189e-46
2.35362e-45
1.33512e-46
3.85384e-46
2.11201e-47
3.90007e-47
1.95704e-48
4.20224e-48
-1.95717e-48
7.03319e-49
-2.11218e-47
4.2024e-48
-1.33532e-46
3.90029e-47
-9.24424e-46
3.85415e-46
-1.39834e-45
2.35398e-45
1.23831e-45
1.70571e-44
3.42963e-45
1.305e-44
-9.45564e-46
-3.24566e-44
-5.0972e-45
-3.04532e-44
-9.45564e-46
3.04532e-44
3.42963e-45
3.24566e-44
1.23831e-45
-1.305e-44
-1.39834e-45
-1.70571e-44
-9.24444e-46
-2.35398e-45
-1.33768e-46
-3.85384e-46
-2.33495e-47
-3.8647e-47
-2.35439e-47
2.77081e-50
-1.35722e-46
3.89706e-47
-9.43374e-46
3.89203e-46
-1.51048e-45
2.38877e-45
4.49843e-46
1.74032e-44
2.97906e-45
1.50141e-44
1.84598e-45
-1.77966e-44
-1.84582e-45
-3.48851e-44
-2.97723e-45
-1.77968e-44
-4.30266e-46
1.50116e-44
1.61433e-45
1.73645e-44
1.7601e-45
7.77573e-44
9.29678e-43
4.84056e-45
-2.0333e-43
1.63612e-45
-1.9168e-44
5.55635e-46
-1.46373e-46
1.21408e-47
-3.46217e-45
-4.21502e-46
-3.37163e-45
-1.66673e-46
1.32519e-45
1.3352e-46
1.74778e-45
9.19115e-47
2.46593e-46
1.35335e-47
4.12055e-47
2.17678e-48
4.24507e-48
2.042e-49
4.63269e-49
-2.04214e-49
7.84736e-50
-2.17696e-48
4.63287e-49
-1.35356e-47
4.24532e-48
-9.1936e-47
4.12089e-47
-1.33746e-46
2.46634e-46
1.64532e-46
1.74826e-45
4.08625e-46
1.32981e-45
-9.41149e-47
-3.3242e-45
-5.69669e-46
-3.11499e-45
-9.41149e-47
3.11499e-45
4.08625e-46
3.3242e-45
1.64532e-46
-1.32981e-45
-1.33747e-46
-1.74826e-45
-9.19381e-47
-2.46633e-46
-1.35605e-47
-4.12055e-47
-2.40975e-48
-4.20561e-48
-2.43023e-48
3.11412e-51
-1.37644e-47
4.24169e-48
-9.38861e-47
4.16259e-47
-1.45077e-46
2.50415e-46
8.63848e-47
1.78518e-45
3.69224e-46
1.53473e-45
2.19902e-46
-1.82728e-45
-2.19882e-46
-3.57894e-45
-3.69011e-46
-1.8273e-45
-8.41614e-47
1.53441e-45
1.56773e-46
1.78072e-45
1.83222e-46
1.86761e-42
-3.89702e-42
1.64105e-43
-3.66074e-43
1.63712e-44
-2.83111e-44
1.28218e-45
-1.71984e-45
9.22963e-47
-5.00624e-46
-3.54393e-47
-3.86435e-46
-1.65854e-47
1.48291e-46
1.22432e-47
1.96884e-46
8.57086e-48
2.82018e-47
1.28329e-48
4.78512e-48
2.08942e-49
4.99247e-49
1.98207e-50
5.50038e-50
-1.98219e-50
9.39735e-51
-2.08956e-49
5.50062e-50
-1.28342e-48
4.99281e-49
-8.57187e-48
4.78559e-48
-1.22414e-47
2.82078e-47
1.67728e-47
1.96963e-46
4.03415e-47
1.49225e-46
-8.78102e-48
-3.74336e-46
-5.51718e-47
-3.50469e-46
-8.78102e-48
3.50469e-46
4.03415e-47
3.74336e-46
1.67728e-47
-1.49225e-46
-1.22414e-47
-1.96963e-46
-8.57208e-48
-2.82078e-47
-1.28586e-48
-4.78518e-48
-2.3158e-49
-4.94524e-49
-2.33582e-49
3.74896e-52
-1.30565e-48
4.98843e-49
-8.75879e-48
4.83505e-48
-1.33131e-47
2.8652e-47
9.50902e-48
2.01244e-46
3.69036e-47
1.72588e-46
2.17281e-47
-2.06135e-46
-2.1726e-47
-4.03497e-46
-3.68812e-47
-2.06138e-46
-9.28177e-48
1.72545e-46
1.45003e-47
2.00692e-46
2.08501e-47
2.87089e-38
-3.18835e-37
2.47732e-38
-9.55856e-38
4.49973e-39
-7.51393e-38
1.26626e-39
-8.17026e-39
1.53013e-40
-1.08575e-39
2.11412e-41
-9.66301e-41
2.06974e-42
-9.43438e-42
2.11687e-43
-7.53207e-43
1.79136e-44
-6.22348e-44
1.5177e-45
-4.55182e-45
1.12456e-46
-3.1869e-46
1.40113e-47
1.04214e-47
3.18332e-48
-1.04055e-47
-3.71174e-48
-2.13298e-47
-1.89418e-48
9.34147e-48
1.41423e-48
1.23445e-47
1.02001e-48
1.98772e-48
1.69822e-49
3.59873e-49
2.92148e-50
4.13708e-50
3.38469e-51
4.83224e-51
3.87536e-52
4.52632e-52
3.63254e-53
4.16636e-53
3.32616e-54
3.3567e-54
5.32653e-55
2.43932e-55
3.33738e-54
-2.45167e-55
3.64118e-53
-3.373e-54
3.87448e-52
-4.18829e-53
3.35831e-51
-4.55231e-52
2.84643e-50
-4.86085e-51
1.53242e-49
-4.15989e-50
7.05539e-49
-3.60886e-49
-4.06029e-48
-1.96482e-48
-9.20199e-47
-1.16388e-47
-1.38307e-45
5.80913e-48
-2.07094e-44
2.79925e-46
-2.84493e-43
4.04799e-45
-3.93e-42
5.92177e-44
-4.7811e-41
7.74332e-43
-6.03602e-40
9.22328e-42
-6.22264e-39
5.93527e-41
-7.06134e-38
-8.65949e-40
-5.33288e-37
-5.61087e-38
-4.91942e-36
-1.54072e-36
-4.4351e-36
-3.04283e-35
4.47757e-36
-1.51948e-35
-3.05245e-35
4.80899e-36
7.35069e-37
-4.31806e-37
5.07581e-37
-3.45786e-37
6.37784e-38
-8.24826e-38
1.15192e-38
-7.93409e-39
1.21425e-39
-9.92666e-40
1.47773e-40
-8.66433e-41
1.36281e-41
-8.40439e-42
1.32247e-42
-6.68154e-43
1.08576e-43
-5.51206e-44
8.99641e-45
-4.00653e-45
6.66774e-46
-2.9164e-46
4.92127e-47
-1.75746e-47
3.44994e-48
-1.82822e-48
2.07028e-50
-1.3587e-48
-8.7392e-50
5.57268e-49
7.52192e-50
7.44161e-49
5.39858e-50
1.21006e-49
9.09143e-51
2.19954e-50
1.58219e-51
2.54403e-51
1.85158e-52
2.97651e-52
2.1379e-53
2.79674e-53
2.0191e-54
2.57463e-54
1.85975e-55
2.07639e-55
3.00875e-56
1.50769e-56
1.89687e-55
-1.51076e-56
2.0858e-54
-2.07722e-55
2.25815e-53
-2.56903e-54
2.06452e-52
-2.77433e-53
1.9585e-51
-2.91875e-52
1.55457e-50
-2.41548e-51
1.63291e-49
-1.94267e-50
1.84756e-48
-7.30569e-50
2.8092e-47
1.02941e-49
4.22722e-46
1.35661e-47
6.21827e-45
2.2919e-46
8.45779e-44
3.43753e-45
1.13678e-42
5.0609e-44
1.36843e-41
6.66476e-43
1.66208e-40
8.08833e-42
1.69509e-39
5.77542e-41
1.81351e-38
-5.2778e-40
1.36075e-37
-4.25292e-38
1.12858e-36
-1.2049e-36
1.43694e-36
-2.43819e-35
-1.03193e-37
-1.54094e-33
-2.44789e-35
-5.79331e-37
2.50837e-35
-1.28107e-35
9.01361e-37
-4.57584e-37
6.84947e-37
3.9399e-38
1.20013e-37
6.18874e-39
1.14343e-38
9.4492e-40
1.36141e-39
8.62037e-41
1.19561e-40
8.48617e-42
1.1412e-41
6.76641e-43
9.10485e-43
5.58143e-44
7.44889e-44
4.0527e-45
5.41841e-45
2.95619e-46
3.93512e-46
1.98405e-47
2.62956e-47
1.27409e-48
1.72003e-48
1.14681e-50
1.01461e-49
3.52212e-50
1.05238e-50
4.05644e-50
3.31602e-51
6.63834e-51
5.20236e-52
1.216e-51
8.83093e-53
1.41865e-52
1.03068e-53
1.67035e-53
1.18804e-54
1.57951e-54
1.12331e-55
1.46029e-55
1.03897e-56
1.18275e-56
2.67309e-57
8.58275e-58
3.12657e-56
-9.21087e-58
5.32514e-55
-1.30738e-56
9.41414e-54
-1.71465e-55
1.65863e-52
-2.08438e-54
2.95443e-51
-2.65223e-53
5.1251e-50
-3.26453e-52
8.78457e-49
-4.61006e-51
1.44002e-47
-6.65311e-50
2.31125e-46
-1.07413e-48
3.49531e-45
-1.69877e-47
5.18667e-44
-2.72437e-46
7.11292e-43
-4.09456e-45
9.67945e-42
-6.02129e-44
1.17793e-40
-7.85772e-43
1.45678e-39
-9.25404e-42
1.50925e-38
-5.31071e-41
1.66365e-37
1.1586e-39
1.2841e-36
6.59265e-38
1.13577e-35
1.79103e-36
1.06428e-35
3.54471e-35
1.69009e-35
1.72804e-33
3.55303e-35
-9.37782e-36
8.04754e-37
-3.1847e-37
4.28151e-37
-2.17191e-37
5.57046e-38
5.71916e-38
1.03392e-38
7.37556e-39
1.11226e-39
1.05488e-39
1.37482e-40
9.54848e-41
1.28175e-41
9.38099e-42
1.25441e-42
7.50165e-43
1.03649e-43
6.20016e-44
8.63341e-45
4.51476e-45
6.42651e-46
3.29873e-46
4.73117e-47
2.2077e-47
3.21337e-48
1.45792e-48
2.13298e-49
8.65976e-50
1.31022e-50
7.1449e-51
1.02218e-51
2.5199e-51
1.9693e-52
3.82678e-52
2.82493e-53
6.80463e-53
4.63228e-54
7.91411e-54
5.38228e-55
9.29366e-55
6.19562e-56
8.79644e-56
5.87047e-57
8.12577e-57
5.42572e-58
6.58263e-58
1.17781e-58
4.55399e-59
1.15674e-57
-9.89469e-59
1.79113e-56
-1.742e-57
2.89654e-55
-3.05703e-56
4.72077e-54
-5.38504e-55
7.85329e-53
-9.75108e-54
1.29453e-51
-1.74603e-52
2.09145e-50
-3.13998e-51
3.29338e-49
-5.46904e-50
4.92466e-48
-9.39769e-49
7.13829e-47
-1.53862e-47
9.57763e-46
-2.46995e-46
1.24925e-44
-3.7102e-45
1.44982e-43
-5.44127e-44
1.66e-42
-7.06397e-43
1.52532e-41
-8.13582e-42
1.46453e-40
-3.93159e-41
7.01412e-40
1.33733e-39
5.30374e-39
6.74728e-38
-6.39211e-38
1.79197e-36
3.59085e-37
3.48093e-35
9.74214e-37
2.28643e-35
3.49043e-35
5.93105e-37
6.83152e-38
-2.5474e-37
-2.01295e-38
-2.25888e-38
-1.55993e-40
4.24469e-39
5.80775e-40
6.92974e-40
9.31664e-41
1.06678e-40
1.50799e-41
1.03945e-41
1.58969e-42
1.05711e-42
1.71304e-43
8.80085e-44
1.49842e-44
7.4375e-45
1.30744e-45
5.55664e-46
1.00401e-46
4.12457e-47
7.58362e-48
2.80939e-48
5.24583e-49
1.87888e-49
3.54162e-50
1.15992e-50
2.22867e-51
8.06739e-52
1.4856e-52
1.54048e-52
1.56474e-53
2.10846e-53
1.76011e-54
3.58371e-54
2.5349e-55
4.1416e-55
2.84174e-56
4.85023e-56
3.21178e-57
4.59871e-57
3.01637e-58
4.25087e-58
7.9108e-60
3.45985e-59
-4.19288e-58
4.72772e-60
-8.80335e-57
4.61627e-59
-1.77901e-55
1.00279e-57
-3.50724e-54
2.11612e-56
-6.66336e-53
4.30145e-55
-1.23606e-51
8.50064e-54
-2.19629e-50
1.61525e-52
-3.81708e-49
2.99351e-51
-6.2969e-48
5.30533e-50
-1.01995e-46
9.1999e-49
-1.54639e-45
1.5113e-47
-2.32033e-44
2.44154e-46
-3.18652e-43
3.68167e-45
-4.40036e-42
5.51813e-44
-5.35104e-41
7.56244e-43
-6.7533e-40
1.06122e-41
-6.95846e-39
1.34829e-40
-7.89421e-38
1.91577e-39
-5.95815e-37
2.53415e-38
-5.4964e-36
3.86464e-37
-4.95608e-36
4.55355e-36
5.00915e-36
4.20204e-35
4.5619e-36
5.42261e-36
4.14981e-39
-4.11739e-38
-2.8951e-39
-3.65624e-39
-2.20645e-40
2.20856e-40
1.82205e-41
5.8803e-41
5.3208e-42
1.15143e-41
1.06103e-42
1.24139e-42
1.22753e-43
1.37786e-43
1.3988e-44
1.20861e-44
1.2756e-45
1.06699e-45
1.14394e-46
8.20927e-47
9.00005e-48
6.2431e-48
6.913e-49
4.32716e-49
4.85826e-50
2.9367e-50
3.31898e-51
1.85253e-51
2.11766e-52
1.19372e-52
1.36942e-53
1.23987e-53
1.14025e-54
1.33391e-54
1.0715e-55
1.96454e-55
1.34631e-56
2.18703e-56
1.44199e-57
2.51082e-57
1.59126e-58
2.36629e-58
1.50144e-59
2.17806e-59
4.51592e-60
1.96641e-60
6.73862e-59
4.67294e-60
1.39451e-57
9.95717e-59
2.79946e-56
2.1223e-57
5.47805e-55
4.4165e-56
1.0336e-53
8.89484e-55
1.90021e-52
1.74888e-53
3.34783e-51
3.31271e-52
5.7498e-50
6.12996e-51
9.37962e-49
1.0856e-49
1.49464e-47
1.88188e-48
2.23171e-46
3.09182e-47
3.27164e-45
4.99465e-46
4.39695e-44
7.53451e-45
5.86615e-43
1.12897e-43
6.90814e-42
1.54643e-42
8.2599e-41
2.16203e-41
8.08873e-40
2.718e-40
8.38213e-39
3.77338e-39
5.81402e-38
4.77165e-38
4.50862e-37
6.98943e-37
4.00974e-37
7.83704e-36
-3.99001e-37
7.21772e-35
7.83188e-36
-4.42647e-37
4.10077e-40
-3.23186e-39
-4.1527e-40
-3.25938e-40
-3.94026e-41
2.5297e-42
-1.73513e-42
3.30951e-42
1.75526e-43
8.11414e-43
6.9013e-44
9.58406e-44
9.39784e-45
1.12744e-44
1.18226e-45
1.03258e-45
1.13963e-46
9.38377e-47
1.06523e-47
7.40411e-48
8.62076e-49
5.73026e-49
6.7699e-50
4.03702e-50
4.8362e-51
2.77233e-51
3.34773e-52
1.7731e-52
2.16056e-53
1.12854e-53
1.3782e-54
9.24872e-55
9.74557e-56
8.32337e-56
7.58794e-57
1.05192e-56
7.76309e-58
1.11442e-57
7.58403e-59
1.24515e-58
8.01107e-60
1.16326e-59
2.60042e-60
1.06613e-60
4.12244e-59
1.30701e-61
8.7737e-58
1.00985e-60
1.82551e-56
2.20417e-59
3.6781e-55
4.70302e-58
7.23135e-54
9.80117e-57
1.37073e-52
1.97685e-55
2.53598e-51
3.89448e-54
4.49574e-50
7.39061e-53
7.78916e-49
1.37102e-51
1.28153e-47
2.43373e-50
2.06753e-46
4.23337e-49
3.12433e-45
6.98234e-48
4.66317e-44
1.1374e-46
6.37693e-43
1.74921e-45
8.74142e-42
2.77577e-44
1.05705e-40
4.49106e-43
1.31977e-39
9.07422e-42
1.3493e-38
2.19874e-40
1.50518e-37
6.14117e-39
1.12318e-36
1.61033e-37
1.00468e-35
3.65747e-36
9.06315e-36
6.456e-35
-9.05708e-36
1.45035e-34
6.44768e-35
-9.8696e-36
2.94064e-41
-3.51103e-40
-3.20711e-41
-3.59561e-41
-3.40404e-42
-1.88108e-42
-2.59159e-43
8.42701e-44
-1.667e-45
5.19007e-44
3.48593e-45
7.19428e-45
5.70477e-46
9.35238e-46
7.82775e-47
9.04558e-47
7.9289e-48
8.56671e-48
7.65816e-49
6.95069e-49
6.35514e-50
5.49855e-50
5.08084e-51
3.93711e-51
3.68545e-52
2.73873e-52
2.58027e-53
1.77138e-53
1.68303e-54
1.12382e-54