/*--------------------------------*- C++ -*----------------------------------*\
| =========                 |                                                 |
| \\      /  F ield         | OpenFOAM: The Open Source CFD Toolbox           |
|  \\    /   O peration     | Version:  2.4.0                                 |
|   \\  /    A nd           | Web:      www.OpenFOAM.org                      |
|    \\/     M anipulation  |                                                 |
\*---------------------------------------------------------------------------*/
FoamFile
{
    version     2.0;
    format      ascii;
    class       volVectorField;
    location    "0.45";
    object      U;
}
// * * * * * * * * * * * * * * * * * * * * * * * * * * * * * * * * * * * * * //

dimensions      [0 1 -1 0 0 0 0];

internalField   nonuniform List<vector> 
7700
(
(4.01558e-36 1.11671e-36 0)
(4.61958e-35 8.92085e-36 0)
(2.5469e-34 8.8023e-35 0)
(3.35554e-33 7.22703e-35 0)
(3.14354e-33 -1.70505e-34 0)
(-3.14297e-33 -1.70404e-34 0)
(-3.35103e-33 7.35602e-35 0)
(-2.04409e-34 9.81442e-35 0)
(2.55213e-34 1.05983e-34 0)
(3.61075e-33 1.6278e-34 0)
(6.54931e-33 -8.792e-35 0)
(3.0541e-34 -2.42776e-34 0)
(-2.83805e-33 7.22702e-35 0)
(3.19425e-33 1.60292e-34 0)
(3.36007e-33 -7.35702e-35 0)
(2.55213e-34 -8.81362e-35 0)
(4.62669e-35 -8.93432e-36 0)
(4.01873e-36 -1.1881e-36 0)
(4.79059e-37 -1.02713e-37 0)
(4.01253e-38 -1.00114e-38 0)
(3.81289e-39 -7.87604e-40 0)
(2.96104e-40 -6.49173e-41 0)
(2.41085e-41 -4.68372e-42 0)
(1.84918e-42 -3.1875e-43 0)
(1.85636e-42 3.20243e-43 0)
(2.42248e-41 4.70493e-42 0)
(2.97702e-40 6.52359e-41 0)
(3.83525e-39 7.91944e-40 0)
(4.0397e-38 1.00716e-38 0)
(4.82573e-37 1.03435e-37 0)
(4.055e-36 1.19731e-36 0)
(4.67052e-35 9.02689e-36 0)
(2.58745e-34 8.922e-35 0)
(3.40224e-33 8.12963e-35 0)
(3.40224e-33 -8.12963e-35 0)
(2.58745e-34 -8.922e-35 0)
(4.67052e-35 -9.02689e-36 0)
(4.055e-36 -1.19731e-36 0)
(4.82573e-37 -1.03435e-37 0)
(4.0397e-38 -1.00716e-38 0)
(3.83515e-39 -7.92151e-40 0)
(2.96811e-40 -6.69501e-41 0)
(1.96499e-41 -1.96515e-41 0)
(-2.73813e-41 -7.71045e-41 0)
(1.08279e-42 -4.98992e-40 0)
(3.38308e-41 -5.44391e-41 0)
(8.38113e-37 -5.13206e-37 0)
(8.68392e-36 -4.61242e-36 0)
(4.92066e-35 -4.55427e-35 0)
(4.40834e-34 -3.73629e-35 0)
(3.99562e-34 8.81655e-35 0)
(-3.9944e-34 8.81154e-35 0)
(-4.3987e-34 -3.80078e-35 0)
(-3.96462e-35 -5.07577e-35 0)
(4.93196e-35 -5.48291e-35 0)
(4.90152e-34 -8.41497e-35 0)
(8.49946e-34 4.54922e-35 0)
(5.8861e-35 1.25528e-34 0)
(-3.40683e-34 -3.73629e-35 0)
(4.09215e-34 -8.29052e-35 0)
(4.41805e-34 3.80126e-35 0)
(4.93196e-35 4.55983e-35 0)
(8.70117e-36 4.62061e-36 0)
(8.60439e-37 5.94881e-37 0)
(1.02743e-37 5.0457e-38 0)
(9.14337e-39 4.7965e-39 0)
(8.76284e-40 3.70773e-40 0)
(7.04472e-41 3.00423e-41 0)
(5.79127e-42 2.13859e-42 0)
(4.54674e-43 1.43902e-43 0)
(4.56483e-43 -1.44563e-43 0)
(5.82008e-42 -2.14807e-42 0)
(7.08396e-41 -3.01861e-41 0)
(8.81645e-40 -3.72757e-40 0)
(9.20797e-39 -4.82438e-39 0)
(1.03548e-37 -5.07974e-38 0)
(8.68695e-37 -5.99303e-37 0)
(8.79463e-36 -4.66621e-36 0)
(5.00755e-35 -4.61419e-35 0)
(4.49628e-34 -4.20287e-35 0)
(4.49628e-34 4.20287e-35 0)
(5.00755e-35 4.61419e-35 0)
(8.79463e-36 4.66621e-36 0)
(8.68695e-37 5.99303e-37 0)
(1.03548e-37 5.07974e-38 0)
(9.20781e-39 4.82418e-39 0)
(8.8036e-40 3.70661e-40 0)
(5.96164e-41 1.25265e-41 0)
(-5.20967e-41 -1.5425e-40 0)
(-3.72713e-40 -8.22402e-40 0)
(1.14926e-41 -5.42001e-39 0)
(4.2447e-40 -5.88386e-40 0)
(1.77213e-37 -1.08638e-37 0)
(1.52834e-36 -9.62114e-37 0)
(5.79674e-36 -7.85522e-36 0)
(3.96416e-35 -6.15217e-36 0)
(3.52249e-35 1.51085e-35 0)
(-3.51968e-35 1.5097e-35 0)
(-3.94452e-35 -6.29072e-36 0)
(-4.09291e-36 -8.94607e-36 0)
(5.82263e-36 -9.79335e-36 0)
(4.5464e-35 -1.4274e-35 0)
(7.65676e-35 7.84362e-36 0)
(7.5217e-36 2.12607e-35 0)
(-2.76988e-35 -6.15216e-36 0)
(3.69497e-35 -1.40073e-35 0)
(3.98397e-35 6.29183e-36 0)
(5.82263e-36 7.86797e-36 0)
(1.53132e-36 9.63904e-37 0)
(1.72707e-37 1.27076e-37 0)
(2.34875e-38 1.15743e-38 0)
(2.22904e-39 1.11509e-39 0)
(2.26313e-40 8.95539e-41 0)
(1.88422e-41 7.3416e-42 0)
(1.59642e-42 5.35799e-43 0)
(1.28071e-43 3.6397e-44 0)
(1.28594e-43 -3.65691e-44 0)
(1.60466e-42 -5.38242e-43 0)
(1.89524e-41 -7.37798e-42 0)
(2.27789e-40 -9.00505e-41 0)
(2.24626e-39 -1.12189e-39 0)
(2.36947e-38 -1.16564e-38 0)
(1.74706e-37 -1.28101e-37 0)
(1.55254e-36 -9.74349e-37 0)
(5.97139e-36 -7.98329e-36 0)
(4.11939e-35 -7.12642e-36 0)
(4.11939e-35 7.12642e-36 0)
(5.97139e-36 7.98329e-36 0)
(1.55254e-36 9.74349e-37 0)
(1.74706e-37 1.28101e-37 0)
(2.36946e-38 1.16563e-38 0)
(2.24468e-39 1.12003e-39 0)
(2.1446e-40 6.99296e-41 0)
(-9.87942e-41 -1.637e-40 0)
(-6.12613e-40 -1.53346e-39 0)
(-4.01727e-39 -8.18504e-39 0)
(1.11656e-40 -5.47035e-38 0)
(4.5256e-39 -5.90872e-39 0)
(2.47004e-38 -2.57712e-38 0)
(1.85947e-37 -2.05943e-37 0)
(5.03047e-37 -1.58573e-36 0)
(2.6982e-36 -1.22551e-36 0)
(2.36108e-36 3.04999e-36 0)
(-2.35691e-36 3.04714e-36 0)
(-2.67119e-36 -1.25827e-36 0)
(-2.9324e-37 -1.82196e-36 0)
(5.06851e-37 -2.00102e-36 0)
(3.20501e-36 -2.87413e-36 0)
(5.26864e-36 1.5828e-36 0)
(7.15909e-37 4.27549e-36 0)
(-1.64448e-36 -1.2255e-36 0)
(2.57392e-36 -2.81115e-36 0)
(2.72547e-36 1.25856e-36 0)
(5.06851e-37 1.58887e-36 0)
(1.86301e-37 2.06392e-37 0)
(2.35248e-38 2.99176e-38 0)
(3.44399e-39 2.87932e-39 0)
(3.44604e-40 2.93277e-40 0)
(3.61312e-41 2.44055e-41 0)
(3.09897e-42 2.06435e-42 0)
(2.67464e-43 1.53931e-43 0)
(2.1881e-44 1.06364e-44 0)
(2.19724e-44 -1.0688e-44 0)
(2.68886e-43 -1.54654e-43 0)
(3.11777e-42 -2.07498e-42 0)
(3.6378e-41 -2.4548e-41 0)
(3.47433e-40 -2.95186e-40 0)
(3.47698e-39 -2.90164e-39 0)
(2.38327e-38 -3.01862e-38 0)
(1.89394e-37 -2.08974e-37 0)
(5.26859e-37 -1.61586e-36 0)
(2.88755e-36 -1.43445e-36 0)
(2.88755e-36 1.43445e-36 0)
(5.26859e-37 1.61586e-36 0)
(1.89394e-37 2.08974e-37 0)
(2.38326e-38 3.01861e-38 0)
(3.47557e-39 2.9001e-39 0)
(3.32194e-40 2.7838e-40 0)
(-9.28574e-41 -1.59798e-40 0)
(-1.1527e-39 -1.58371e-39 0)
(-6.1165e-39 -1.44656e-38 0)
(-4.05917e-38 -7.86589e-38 0)
(9.85542e-40 -5.36744e-37 0)
(4.52012e-38 -5.74331e-38 0)
(2.94419e-39 -6.87552e-39 0)
(2.32482e-38 -2.98991e-38 0)
(3.90907e-38 -2.09901e-37 0)
(1.27836e-37 -1.58853e-37 0)
(1.09144e-37 4.02162e-37 0)
(-1.08529e-37 4.01729e-37 0)
(-1.24127e-37 -1.63668e-37 0)
(-1.27862e-38 -2.43006e-37 0)
(3.95865e-38 -2.68147e-37 0)
(1.67377e-37 -3.77534e-37 0)
(2.63115e-37 2.08928e-37 0)
(6.57208e-38 5.60951e-37 0)
(-4.33136e-38 -1.58776e-37 0)
(1.35822e-37 -3.68149e-37 0)
(1.31505e-37 1.63715e-37 0)
(3.95865e-38 2.09876e-37 0)
(2.30855e-38 2.91869e-38 0)
(3.16475e-39 4.44705e-39 0)
(4.98725e-40 4.48704e-40 0)
(5.1842e-41 4.71061e-41 0)
(5.61034e-42 4.03758e-42 0)
(4.91749e-43 3.47921e-43 0)
(4.31759e-44 2.64402e-44 0)
(3.58174e-45 1.84788e-45 0)
(3.59697e-45 -1.85704e-45 0)
(4.34107e-44 -2.65675e-44 0)
(4.94822e-43 -3.49768e-43 0)
(5.65014e-42 -4.06203e-42 0)
(5.229e-41 -4.74273e-41 0)
(5.03837e-40 -4.5239e-40 0)
(3.21089e-39 -4.49007e-39 0)
(2.35314e-38 -2.95878e-38 0)
(4.22412e-38 -2.13866e-37 0)
(1.51322e-37 -1.8836e-37 0)
(1.51322e-37 1.8836e-37 0)
(4.22412e-38 2.13866e-37 0)
(2.35313e-38 2.95877e-38 0)
(3.20972e-39 4.48908e-39 0)
(4.91074e-40 4.39883e-40 0)
(-8.75162e-41 -9.0358e-41 0)
(-1.19384e-39 -1.52605e-39 0)
(-1.09123e-38 -1.33582e-38 0)
(-5.88529e-38 -1.24122e-37 0)
(-3.98926e-37 -6.92715e-37 0)
(8.0641e-39 -4.81507e-36 0)
(4.38566e-37 -5.13519e-37 0)
(-4.54408e-39 -2.91853e-38 0)
(4.599e-39 -1.15898e-38 0)
(3.42994e-39 -3.32715e-38 0)
(2.99026e-39 -2.19364e-38 0)
(2.00224e-39 5.40578e-38 0)
(-1.86005e-39 5.40993e-38 0)
(-2.16709e-39 -2.19254e-38 0)
(2.76194e-41 -3.29161e-38 0)
(2.92948e-39 -3.63897e-38 0)
(5.52677e-39 -5.07821e-38 0)
(7.42342e-39 2.81317e-38 0)
(5.80451e-39 7.53845e-38 0)
(3.87308e-39 -2.12046e-38 0)
(4.88681e-39 -4.94036e-38 0)
(3.03294e-39 2.19313e-38 0)
(2.92946e-39 2.82755e-38 0)
(2.52131e-39 4.06511e-39 0)
(3.68366e-40 6.52005e-40 0)
(6.08275e-41 6.79794e-41 0)
(6.52948e-42 7.35333e-42 0)
(7.22415e-43 6.43899e-43 0)
(6.45657e-44 5.64463e-44 0)
(5.74407e-45 4.34724e-45 0)
(4.8284e-46 3.06758e-46 0)
(4.84924e-46 -3.08301e-46 0)
(5.77595e-45 -4.36856e-45 0)
(6.49794e-44 -5.67529e-44 0)
(7.27703e-43 -6.47915e-43 0)
(6.58823e-42 -7.40538e-42 0)
(6.14844e-41 -6.85662e-41 0)
(3.74162e-40 -6.58706e-40 0)
(2.57548e-39 -4.12562e-39 0)
(3.23555e-39 -2.88583e-38 0)
(5.17279e-39 -2.53296e-38 0)
(5.17278e-39 2.53296e-38 0)
(3.2355e-39 2.88582e-38 0)
(2.57473e-39 4.12504e-39 0)
(3.64632e-40 6.51218e-40 0)
(-4.33609e-41 -2.76671e-41 0)
(-1.15599e-39 -1.0655e-39 0)
(-1.01199e-38 -1.21312e-38 0)
(-9.37502e-38 -1.08034e-37 0)
(-5.18592e-37 -1.03231e-36 0)
(-3.58263e-36 -5.96409e-36 0)
(5.43268e-38 -4.28098e-35 0)
(3.87427e-36 -4.50574e-36 0)
(-4.37823e-38 -2.56216e-37 0)
(2.07989e-38 -6.6438e-38 0)
(5.80158e-39 -4.78013e-38 0)
(3.43631e-39 -8.72105e-39 0)
(1.92414e-40 5.16174e-39 0)
(4.58663e-40 6.07599e-39 0)
(4.29938e-40 -2.50045e-39 0)
(9.15802e-41 -3.78868e-39 0)
(2.36026e-40 -4.19754e-39 0)
(-1.34846e-40 -5.79453e-39 0)
(-4.10925e-40 3.21677e-39 0)
(5.52572e-40 8.59445e-39 0)
(9.11737e-40 -2.3997e-39 0)
(-3.29835e-41 -5.62498e-39 0)
(-3.20861e-40 2.4892e-39 0)
(2.35923e-40 3.23499e-39 0)
(2.76458e-40 4.82266e-40 0)
(4.19591e-41 8.00543e-41 0)
(7.18062e-42 8.59508e-42 0)
(7.88011e-43 9.49603e-43 0)
(8.8764e-44 8.47745e-44 0)
(8.04518e-45 7.53001e-45 0)
(7.23323e-46 5.87311e-46 0)
(6.13777e-47 4.17739e-47 0)
(6.16456e-47 -4.19872e-47 0)
(7.27398e-46 -5.9024e-46 0)
(8.09771e-45 -7.57177e-45 0)
(8.94295e-44 -8.53167e-44 0)
(7.95324e-43 -9.5654e-43 0)
(7.26123e-42 -8.67224e-42 0)
(4.26569e-41 -8.09179e-41 0)
(2.82835e-40 -4.89897e-40 0)
(2.70524e-40 -3.30628e-39 0)
(-8.79455e-41 -2.88951e-39 0)
(-8.79742e-41 2.88949e-39 0)
(2.70083e-40 3.30603e-39 0)
(2.77111e-40 4.86224e-40 0)
(-3.08489e-41 3.2829e-41 0)
(-8.11066e-40 -6.16495e-40 0)
(-9.23557e-39 -7.06766e-39 0)
(-8.19524e-38 -8.14475e-38 0)
(-7.79833e-37 -7.44845e-37 0)
(-4.45558e-36 -7.34102e-36 0)
(-3.18161e-35 -4.46813e-35 0)
(3.10368e-37 -3.28762e-34 0)
(3.38127e-35 -3.46626e-35 0)
(-3.55505e-37 -2.04833e-36 0)
(2.18427e-37 -5.53778e-37 0)
(5.37614e-38 -3.89211e-37 0)
(3.37548e-38 -5.39719e-38 0)
(4.70778e-39 -7.86146e-39 0)
(8.42323e-40 -1.94602e-40 0)
(1.54267e-40 -3.7618e-40 0)
(2.25169e-41 -4.36967e-40 0)
(2.08437e-41 -4.7619e-40 0)
(-4.55246e-41 -6.52276e-40 0)
(-9.37126e-41 3.62358e-40 0)
(5.22388e-41 9.66742e-40 0)
(1.12825e-40 -2.68698e-40 0)
(-2.73384e-41 -6.3209e-40 0)
(-6.03758e-41 2.79335e-40 0)
(2.00148e-41 3.6457e-40 0)
(2.80326e-41 5.55636e-41 0)
(4.38428e-42 9.49232e-42 0)
(7.68468e-43 1.04029e-42 0)
(8.5964e-44 1.16954e-43 0)
(9.81483e-45 1.05872e-44 0)
(9.00876e-46 9.50359e-46 0)
(8.16872e-47 7.47948e-47 0)
(6.99245e-48 5.3522e-48 0)
(7.02328e-48 -5.3798e-48 0)
(8.21537e-47 -7.51723e-47 0)
(9.06856e-46 -9.5571e-46 0)
(9.88993e-45 -1.06562e-44 0)
(8.67822e-44 -1.17829e-43 0)
(7.77369e-43 -1.04991e-42 0)
(4.46026e-42 -9.59854e-42 0)
(2.87132e-41 -5.6485e-41 0)
(2.36101e-41 -3.73001e-40 0)
(-3.69135e-41 -3.25178e-40 0)
(-3.70964e-41 3.25069e-40 0)
(2.07881e-41 3.71481e-40 0)
(-8.22173e-42 3.43518e-41 0)
(-4.7518e-40 -2.8375e-40 0)
(-5.4126e-39 -3.88288e-39 0)
(-6.22043e-38 -4.4757e-38 0)
(-5.65483e-37 -5.3146e-37 0)
(-5.53071e-36 -5.03628e-36 0)
(-3.30428e-35 -5.23043e-35 0)
(-2.42276e-34 -3.4109e-34 0)
(6.9322e-37 -2.65712e-33 0)
(2.50664e-34 -2.73315e-34 0)
(-2.16685e-36 -1.64173e-35 0)
(2.39603e-36 -4.13182e-36 0)
(5.37656e-37 -2.86743e-36 0)
(3.00063e-37 -3.85838e-37 0)
(4.06442e-38 -5.90018e-38 0)
(6.47451e-39 -5.92316e-39 0)
(6.82735e-40 -6.65375e-40 0)
(7.50882e-41 -9.92106e-41 0)
(8.29357e-42 -5.3894e-41 0)
(-5.27422e-42 -6.72687e-41 0)
(-1.13801e-41 3.71908e-41 0)
(5.01807e-42 9.91051e-41 0)
(1.20085e-41 -2.74098e-41 0)
(-3.68622e-42 -6.47407e-41 0)
(-7.12845e-42 2.85536e-41 0)
(1.81314e-42 3.74599e-41 0)
(2.77875e-42 5.8401e-42 0)
(4.42994e-43 1.01854e-42 0)
(7.90503e-44 1.13701e-43 0)
(8.96622e-45 1.29533e-44 0)
(1.03455e-45 1.18744e-45 0)
(9.58522e-47 1.07499e-46 0)
(8.74833e-48 8.53143e-48 0)
(7.5366e-49 6.1362e-49 0)
(7.57007e-49 -6.16815e-49 0)
(8.79877e-48 -8.57495e-48 0)
(9.64962e-47 -1.08113e-46 0)
(1.04259e-45 -1.19531e-45 0)
(9.05316e-45 -1.30522e-44 0)
(7.99866e-44 -1.1478e-43 0)
(4.5089e-43 -1.03029e-42 0)
(2.84833e-42 -5.94072e-42 0)
(2.16999e-42 -3.83639e-41 0)
(-4.89023e-42 -3.33753e-41 0)
(-5.98683e-42 3.29326e-41 0)
(-1.49491e-41 3.21563e-41 0)
(-2.23921e-40 -8.53412e-41 0)
(-2.99791e-39 -1.2236e-39 0)
(-3.44636e-38 -1.64837e-38 0)
(-4.07197e-37 -1.94615e-37 0)
(-3.81401e-36 -2.39071e-36 0)
(-3.89798e-35 -2.40531e-35 0)
(-2.45129e-34 -2.67786e-34 0)
(-1.91101e-33 -1.98774e-33 0)
(-3.84639e-36 -1.60023e-32 0)
(1.92793e-33 -1.67545e-33 0)
(-6.53632e-36 -1.07975e-34 0)
(2.9678e-35 -3.03788e-35 0)
(5.37346e-36 -2.25014e-35 0)
(2.27926e-36 -2.87716e-36 0)
(2.92684e-37 -4.23209e-37 0)
(4.43807e-38 -4.12594e-38 0)
(4.50645e-39 -4.27147e-39 0)
(4.81175e-40 -3.63695e-40 0)
(4.18616e-41 -3.56008e-41 0)
(3.04674e-42 -8.95646e-42 0)
(-8.55907e-43 3.52961e-42 0)
(4.81095e-43 9.83308e-42 0)
(1.14508e-42 -2.71397e-42 0)
(-3.75048e-43 -6.4267e-42 0)
(-7.01738e-43 2.83078e-42 0)
(1.61696e-43 3.7269e-42 0)
(2.5836e-43 5.9027e-43 0)
(4.19035e-44 1.04559e-43 0)
(7.57565e-45 1.18272e-44 0)
(8.70075e-46 1.36064e-45 0)
(1.01228e-46 1.25856e-46 0)
(9.45924e-48 1.14626e-47 0)
(8.67989e-49 9.14959e-49 0)
(7.52177e-50 6.60284e-50 0)
(7.55524e-50 -6.63745e-50 0)
(8.73007e-49 -9.19667e-49 0)
(9.52287e-48 -1.15287e-47 0)
(1.02013e-46 -1.26702e-46 0)
(8.78427e-46 -1.37124e-45 0)
(7.66308e-45 -1.19426e-44 0)
(4.25967e-44 -1.05813e-43 0)
(2.63779e-43 -6.01083e-43 0)
(1.75181e-43 -3.8258e-42 0)
(-8.16184e-43 -3.41924e-42 0)
(-5.39074e-42 1.60848e-42 0)
(-7.19066e-41 -2.18932e-41 0)
(-9.66589e-40 -3.84817e-40 0)
(-1.29883e-38 -5.25766e-39 0)
(-1.52557e-37 -7.29106e-38 0)
(-1.85003e-36 -8.87452e-37 0)
(-1.80295e-35 -1.15764e-35 0)
(-1.91941e-34 -1.25885e-34 0)
(-1.29967e-33 -1.58258e-33 0)
(-1.05559e-32 -1.36769e-32 0)
(-7.14938e-35 -1.24647e-31 0)
(9.93999e-33 -1.21627e-32 0)
(-2.95613e-36 -8.37421e-37 0)
(-3.69002e-35 -6.95568e-36 0)
(-2.09095e-34 -7.59251e-35 0)
(-3.04236e-33 -6.35876e-35 0)
(-2.86756e-33 1.47434e-34 0)
(2.86756e-33 1.47434e-34 0)
(3.04236e-33 -6.35876e-35 0)
(2.09096e-34 -7.59249e-35 0)
(3.69173e-35 -6.9576e-36 0)
(2.93516e-36 -8.85835e-37 0)
(3.36602e-37 -7.05543e-38 0)
(2.5886e-38 -6.59816e-39 0)
(-6.06767e-44 -9.59461e-40 0)
(-2.58869e-38 -6.59833e-39 0)
(-3.36616e-37 -7.05569e-38 0)
(-2.93533e-36 -8.85873e-37 0)
(-3.69197e-35 -6.95808e-36 0)
(-2.09122e-34 -7.59315e-35 0)
(-3.0427e-33 -6.36587e-35 0)
(-2.87052e-33 1.46541e-34 0)
(2.8303e-33 1.40405e-34 0)
(2.8303e-33 -1.40405e-34 0)
(-2.87052e-33 -1.46541e-34 0)
(-3.0427e-33 6.36587e-35 0)
(-2.09122e-34 7.59315e-35 0)
(-3.69197e-35 6.95808e-36 0)
(-2.93551e-36 8.85835e-37 0)
(-3.39005e-37 7.00723e-38 0)
(-5.22729e-38 -3.50306e-41 0)
(-3.41185e-37 -7.05166e-38 0)
(-2.95919e-36 -8.91913e-37 0)
(-3.72301e-35 -7.02203e-36 0)
(-2.11718e-34 -7.67463e-35 0)
(-3.07665e-33 -6.97238e-35 0)
(-3.04236e-33 7.76449e-35 0)
(-1.34288e-40 1.53635e-34 0)
(3.04236e-33 7.76446e-35 0)
(3.07663e-33 -6.97287e-35 0)
(2.11389e-34 -7.67557e-35 0)
(3.5522e-35 -6.47372e-36 0)
(-6.1762e-37 3.8633e-37 0)
(-6.91355e-36 3.59594e-36 0)
(-4.05309e-35 3.92784e-35 0)
(-4.01467e-34 3.28728e-35 0)
(-3.67292e-34 -7.62299e-35 0)
(3.67292e-34 -7.62299e-35 0)
(4.01467e-34 3.28728e-35 0)
(4.0531e-35 3.92784e-35 0)
(6.91813e-36 3.59795e-36 0)
(6.28255e-37 4.42779e-37 0)
(7.19056e-38 3.46108e-38 0)
(5.88872e-39 3.15517e-39 0)
(-1.50016e-44 4.51078e-40 0)
(-5.88894e-39 3.15525e-39 0)
(-7.19088e-38 3.4612e-38 0)
(-6.28296e-37 4.42797e-37 0)
(-6.91867e-36 3.59818e-36 0)
(-4.0537e-35 3.92815e-35 0)
(-4.01539e-34 3.29076e-35 0)
(-3.67927e-34 -7.57839e-35 0)
(3.60302e-34 -7.25971e-35 0)
(3.60302e-34 7.25971e-35 0)
(-3.67927e-34 7.57839e-35 0)
(-4.01539e-34 -3.29076e-35 0)
(-4.0537e-35 -3.92815e-35 0)
(-6.91867e-36 -3.59818e-36 0)
(-6.28337e-37 -4.42779e-37 0)
(-7.24563e-38 -3.43842e-38 0)
(-1.18963e-38 1.62068e-41 0)
(-7.29539e-38 3.45934e-38 0)
(-6.33721e-37 4.45691e-37 0)
(-6.98461e-36 3.62963e-36 0)
(-4.10928e-35 3.96895e-35 0)
(-4.07823e-34 3.60596e-35 0)
(-4.01467e-34 -4.01383e-35 0)
(-3.6391e-41 -7.94486e-35 0)
(4.01466e-34 -4.01382e-35 0)
(4.07818e-34 3.60613e-35 0)
(4.10142e-35 3.96743e-35 0)
(6.51923e-36 2.85762e-36 0)
(-1.31196e-37 8.15822e-38 0)
(-1.23065e-36 7.51951e-37 0)
(-4.79798e-36 6.79496e-36 0)
(-3.63431e-35 5.45712e-36 0)
(-3.26644e-35 -1.31075e-35 0)
(3.26644e-35 -1.31075e-35 0)
(3.63431e-35 5.45712e-36 0)
(4.79796e-36 6.79494e-36 0)
(1.23096e-36 7.52345e-37 0)
(1.26882e-37 9.43439e-38 0)
(1.6543e-38 7.93308e-39 0)
(1.44034e-39 7.31198e-40 0)
(-4.29987e-45 1.08747e-40 0)
(-1.44041e-39 7.31218e-40 0)
(-1.65439e-38 7.93337e-39 0)
(-1.26893e-37 9.43482e-38 0)
(-1.23111e-36 7.524e-37 0)
(-4.79942e-36 6.79567e-36 0)
(-3.63598e-35 5.46511e-36 0)
(-3.27928e-35 -1.30124e-35 0)
(3.14168e-35 -1.23471e-35 0)
(3.14168e-35 1.23471e-35 0)
(-3.27928e-35 1.30124e-35 0)
(-3.63598e-35 -5.46511e-36 0)
(-4.79942e-36 -6.79567e-36 0)
(-1.23111e-36 -7.52399e-37 0)
(-1.26904e-37 -9.43439e-38 0)
(-1.66859e-38 -7.87844e-39 0)
(-2.91255e-39 3.93948e-42 0)
(-1.68145e-38 7.92883e-39 0)
(-1.28214e-37 9.50163e-38 0)
(-1.24619e-36 7.59601e-37 0)
(-4.90962e-36 6.88203e-36 0)
(-3.74624e-35 6.12238e-36 0)
(-3.63431e-35 -6.97779e-36 0)
(-4.3811e-42 -1.378e-35 0)
(3.6343e-35 -6.97774e-36 0)
(3.7462e-35 6.12282e-36 0)
(4.90406e-36 6.87919e-36 0)
(1.21507e-36 5.97443e-37 0)
(-1.83886e-38 1.9212e-38 0)
(-1.50945e-37 1.61114e-37 0)
(-4.18726e-37 1.37369e-36 0)
(-2.49645e-36 1.09037e-36 0)
(-2.21353e-36 -2.64981e-36 0)
(2.21353e-36 -2.64981e-36 0)
(2.49645e-36 1.09037e-36 0)
(4.18718e-37 1.3737e-36 0)
(1.50936e-37 1.61255e-37 0)
(1.73597e-38 2.22996e-38 0)
(2.43249e-39 1.97947e-39 0)
(2.23015e-40 1.93051e-40 0)
(-7.42657e-46 2.97103e-41 0)
(-2.23025e-40 1.93057e-40 0)
(-2.43263e-39 1.97956e-39 0)
(-1.73615e-38 2.23008e-38 0)
(-1.50959e-37 1.6127e-37 0)
(-4.18944e-37 1.37389e-36 0)
(-2.4989e-36 1.09236e-36 0)
(-2.23112e-36 -2.62731e-36 0)
(2.06014e-36 -2.48656e-36 0)
(2.06014e-36 2.48656e-36 0)
(-2.23112e-36 2.62731e-36 0)
(-2.4989e-36 -1.09236e-36 0)
(-4.18944e-37 -1.37389e-36 0)
(-1.50959e-37 -1.6127e-37 0)
(-1.73633e-38 -2.22996e-38 0)
(-2.45534e-39 -1.96454e-39 0)
(-4.51272e-40 1.10857e-42 0)
(-2.47583e-39 1.97827e-39 0)
(-1.75655e-38 2.24765e-38 0)
(-1.53165e-37 1.63056e-37 0)
(-4.33849e-37 1.39419e-36 0)
(-2.63225e-36 1.23112e-36 0)
(-2.49645e-36 -1.41687e-36 0)
(-3.3449e-43 -2.79238e-36 0)
(2.49644e-36 -1.41686e-36 0)
(2.63226e-36 1.23116e-36 0)
(4.33919e-37 1.39307e-36 0)
(1.53397e-37 1.26219e-37 0)
(-2.57155e-39 2.83967e-39 0)
(-1.88624e-38 2.28052e-38 0)
(-3.28068e-38 1.8167e-37 0)
(-1.21894e-37 1.41804e-37 0)
(-1.05919e-37 -3.49967e-37 0)
(1.05919e-37 -3.49967e-37 0)
(1.21894e-37 1.41805e-37 0)
(3.28047e-38 1.8167e-37 0)
(1.88511e-38 2.28304e-38 0)
(2.34418e-39 3.31913e-39 0)
(3.53443e-40 3.08915e-40 0)
(3.36073e-41 3.1037e-41 0)
(-1.22778e-46 4.91851e-42 0)
(-3.3609e-41 3.1038e-41 0)
(-3.53467e-40 3.08929e-40 0)
(-2.34446e-39 3.31933e-39 0)
(-1.88547e-38 2.28329e-38 0)
(-3.28389e-38 1.81701e-37 0)
(-1.22251e-37 1.42116e-37 0)
(-1.08297e-37 -3.46617e-37 0)
(8.6711e-38 -3.26825e-37 0)
(8.6711e-38 3.26825e-37 0)
(-1.08297e-37 3.46617e-37 0)
(-1.22251e-37 -1.42116e-37 0)
(-3.28389e-38 -1.81701e-37 0)
(-1.88547e-38 -2.28328e-38 0)
(-2.34475e-39 -3.31913e-39 0)
(-3.57e-40 -3.06443e-40 0)
(-6.80472e-41 1.86553e-43 0)
(-3.6018e-40 3.08713e-40 0)
(-2.37513e-39 3.34749e-39 0)
(-1.9174e-38 2.31107e-38 0)
(-3.48261e-38 1.84709e-37 0)
(-1.38724e-37 1.61596e-37 0)
(-1.21894e-37 -1.88088e-37 0)
(2.30594e-44 -3.70041e-37 0)
(1.21895e-37 -1.88088e-37 0)
(1.38737e-37 1.61595e-37 0)
(3.49714e-38 1.845e-37 0)
(1.99117e-38 1.76574e-38 0)
(-3.06652e-40 4.15922e-40 0)
(-2.07128e-39 3.17709e-39 0)
(-2.43636e-39 2.4492e-38 0)
(-2.99235e-39 1.89762e-38 0)
(-2.39116e-39 -4.71901e-38 0)
(2.39116e-39 -4.71901e-38 0)
(2.99233e-39 1.89762e-38 0)
(2.43605e-39 2.44922e-38 0)
(2.06907e-39 3.18187e-39 0)
(2.73525e-40 4.87652e-40 0)
(4.31874e-41 4.68778e-41 0)
(4.23699e-42 4.85397e-42 0)
(-1.66809e-47 7.8534e-43 0)
(-4.23722e-42 4.85413e-42 0)
(-4.31906e-41 4.68802e-41 0)
(-2.73563e-40 4.87685e-40 0)
(-2.06952e-39 3.18227e-39 0)
(-2.44036e-39 2.44971e-38 0)
(-3.03598e-39 1.90235e-38 0)
(-2.66899e-39 -4.66976e-38 0)
(2.78445e-40 -4.3961e-38 0)
(2.78445e-40 4.3961e-38 0)
(-2.66899e-39 4.66976e-38 0)
(-3.03598e-39 -1.90235e-38 0)
(-2.44036e-39 -2.44971e-38 0)
(-2.06952e-39 -3.18227e-39 0)
(-2.73601e-40 -4.87652e-40 0)
(-4.36461e-41 -4.6483e-41 0)
(-8.58335e-42 3.0264e-44 0)
(-4.40551e-41 4.6845e-41 0)
(-2.77422e-40 4.92078e-40 0)
(-2.1084e-39 3.22429e-39 0)
(-2.67025e-39 2.49375e-38 0)
(-4.82721e-39 2.17128e-38 0)
(-2.99233e-39 -2.54345e-38 0)
(9.52103e-45 -4.99695e-38 0)
(2.99249e-39 -2.54345e-38 0)
(4.82966e-39 2.17115e-38 0)
(2.6977e-39 2.48995e-38 0)
(2.2445e-39 2.4271e-39 0)
(-3.24013e-41 5.47304e-41 0)
(-2.28238e-40 3.73614e-40 0)
(-1.96619e-40 2.80369e-39 0)
(2.68002e-40 2.15233e-39 0)
(2.63796e-40 -5.40081e-39 0)
(-2.63793e-40 -5.40081e-39 0)
(-2.67979e-40 2.15238e-39 0)
(1.96804e-40 2.80412e-39 0)
(2.27551e-40 3.77753e-40 0)
(3.1202e-41 5.99428e-41 0)
(5.10587e-42 5.93338e-42 0)
(5.11741e-43 6.27403e-43 0)
(-2.13344e-48 1.03461e-43 0)
(-5.1177e-43 6.27426e-43 0)
(-5.10627e-42 5.9337e-42 0)
(-3.12067e-41 5.99472e-41 0)
(-2.27607e-40 3.77805e-40 0)
(-1.97325e-40 2.80475e-39 0)
(2.62817e-40 2.15836e-39 0)
(2.3207e-40 -5.34024e-39 0)
(-4.96506e-40 -5.01707e-39 0)
(-4.96506e-40 5.01707e-39 0)
(2.3207e-40 5.34024e-39 0)
(2.62817e-40 -2.15836e-39 0)
(-1.97325e-40 -2.80475e-39 0)
(-2.27607e-40 -3.77804e-40 0)
(-3.12114e-41 -5.99428e-41 0)
(-5.16231e-42 -5.88135e-42 0)
(-1.03712e-42 4.034e-45 0)
(-5.21253e-42 5.929e-42 0)
(-3.16721e-41 6.05138e-41 0)
(-2.32192e-40 3.8311e-40 0)
(-2.23365e-40 2.85871e-39 0)
(6.69891e-41 2.47555e-39 0)
(2.67979e-40 -2.91985e-39 0)
(1.94779e-45 -5.72938e-39 0)
(-2.6795e-40 -2.91987e-39 0)
(-6.6606e-41 2.47528e-39 0)
(2.27529e-40 2.85337e-39 0)
(2.52493e-40 2.85261e-40 0)
(7.17749e-41 1.16839e-40 0)
(-1.89376e-41 2.38392e-42 0)
(-1.38135e-41 3.11723e-40 0)
(5.2982e-41 2.40917e-40 0)
(4.91013e-41 -6.09006e-40 0)
(-4.90677e-41 -6.08976e-40 0)
(-5.26828e-41 2.41354e-40 0)
(1.67323e-41 3.16158e-40 0)
(2.31124e-41 4.35426e-41 0)
(3.26346e-42 7.11544e-42 0)
(5.46902e-43 7.18784e-43 0)
(5.5853e-44 7.73466e-44 0)
(-2.44253e-49 1.29292e-44 0)
(-5.58564e-44 7.73495e-44 0)
(-5.46947e-43 7.18824e-43 0)
(-3.26398e-42 7.116e-42 0)
(-2.31185e-41 4.35491e-41 0)
(-1.67892e-41 3.16236e-40 0)
(5.21299e-41 2.4208e-40 0)
(4.57498e-41 -6.01781e-40 0)
(-7.27356e-41 -5.64706e-40 0)
(-7.27356e-41 5.64706e-40 0)
(4.57498e-41 6.01781e-40 0)
(5.21299e-41 -2.4208e-40 0)
(-1.67892e-41 -3.16236e-40 0)
(-2.31186e-41 -4.35491e-41 0)
(-3.26451e-42 -7.11544e-42 0)
(-5.53148e-43 -7.12282e-43 0)
(-1.13233e-43 5.08974e-46 0)
(-5.58696e-43 7.18231e-43 0)
(-3.31472e-42 7.18573e-42 0)
(-2.36086e-41 4.41905e-41 0)
(-1.94996e-41 3.22626e-40 0)
(3.23378e-41 2.7843e-40 0)
(5.2683e-41 -3.2989e-40 0)
(2.81512e-46 -6.46703e-40 0)
(-5.2679e-41 -3.29893e-40 0)
(-3.22895e-41 2.78385e-40 0)
(2.001e-41 3.21918e-40 0)
(2.60622e-41 3.25828e-41 0)
(2.11794e-39 -1.27943e-40 0)
(1.01209e-40 -3.76074e-40 0)
(3.69381e-41 -6.83751e-42 0)
(9.75574e-42 2.14121e-41 0)
(6.10175e-42 -6.28139e-41 0)
(-5.75526e-42 -6.26036e-41 0)
(-6.27417e-42 2.46569e-41 0)
(1.51741e-42 3.25004e-41 0)
(2.29316e-42 4.57883e-42 0)
(3.29942e-43 7.64004e-43 0)
(5.62962e-44 7.86122e-44 0)
(5.82777e-45 8.57115e-45 0)
(-2.63677e-50 1.45065e-45 0)
(-5.82813e-45 8.57148e-45 0)
(-5.6301e-44 7.86169e-44 0)
(-3.29998e-43 7.64066e-43 0)
(-2.2938e-42 4.57956e-42 0)
(-1.52325e-42 3.2509e-41 0)
(6.21888e-42 2.47371e-41 0)
(5.44303e-42 -6.18164e-41 0)
(-8.12902e-42 -5.79308e-41 0)
(-8.12902e-42 5.79308e-41 0)
(5.44303e-42 6.18164e-41 0)
(6.21888e-42 -2.47371e-41 0)
(-1.52325e-42 -3.2509e-41 0)
(-2.29381e-42 -4.57956e-42 0)
(-3.30054e-43 -7.64003e-43 0)
(-5.6955e-44 -7.78826e-44 0)
(-1.1818e-44 5.75376e-47 0)
(-5.75394e-44 7.85497e-44 0)
(-3.35287e-43 7.71783e-43 0)
(-2.34417e-42 4.64959e-42 0)
(-1.79624e-42 3.31936e-41 0)
(4.26161e-42 2.85434e-41 0)
(6.27583e-42 -3.39741e-41 0)
(3.5956e-47 -6.6546e-41 0)
(-6.27534e-42 -3.39745e-41 0)
(-4.25601e-42 2.85375e-41 0)
(1.85409e-42 3.31113e-41 0)
(2.62014e-42 3.40371e-42 0)
(4.90508e-38 1.91358e-38 0)
(4.24979e-39 -3.78114e-39 0)
(4.33669e-40 -3.85066e-40 0)
(3.35566e-41 -2.44048e-41 0)
(3.03613e-42 -7.97245e-42 0)
(-4.02046e-43 -6.33176e-42 0)
(-6.09371e-43 2.43742e-42 0)
(1.36034e-43 3.23421e-42 0)
(2.1338e-43 4.62937e-43 0)
(3.1227e-44 7.84699e-44 0)
(5.39741e-45 8.18112e-45 0)
(5.65673e-46 9.00702e-46 0)
(-2.35152e-51 1.53796e-46 0)
(-5.65703e-46 9.0074e-46 0)
(-5.39778e-45 8.18166e-45 0)
(-3.12304e-44 7.84775e-44 0)
(-2.13406e-43 4.63032e-43 0)
(-1.35957e-43 3.23544e-42 0)
(6.14643e-43 2.45168e-42 0)
(5.36681e-43 -6.14918e-42 0)
(-7.87286e-43 -5.75733e-42 0)
(-7.87286e-43 5.75733e-42 0)
(5.36681e-43 6.14918e-42 0)
(6.14643e-43 -2.45168e-42 0)
(-1.35957e-43 -3.23544e-42 0)
(-2.13406e-43 -4.63031e-43 0)
(-3.1236e-44 -7.84708e-44 0)
(-5.4618e-45 -8.10381e-45 0)
(-1.14737e-45 6.13265e-48 0)
(-5.51894e-45 8.1745e-45 0)
(-3.17435e-44 7.92875e-44 0)
(-2.18227e-43 4.70311e-43 0)
(-1.6172e-43 3.30565e-42 0)
(4.33103e-43 2.83527e-42 0)
(6.20105e-43 -3.38585e-42 0)
(4.02252e-48 -6.62782e-42 0)
(-6.20052e-43 -3.3859e-42 0)
(-4.32518e-43 2.83456e-42 0)
(1.67622e-43 3.29662e-42 0)
(2.46209e-43 3.42392e-43 0)
(1.41847e-34 -9.37177e-34 0)
(4.15776e-34 -2.03222e-34 0)
(6.54028e-35 -1.3857e-34 0)
(2.19972e-35 -1.69533e-35 0)
(2.59782e-36 -2.31177e-36 0)
(3.74223e-37 -2.16356e-37 0)
(3.64102e-38 -2.14739e-38 0)
(3.79122e-39 -1.76322e-39 0)
(3.20463e-40 -1.47718e-40 0)
(2.74802e-41 -1.13731e-41 0)
(1.99881e-42 -5.56335e-43 0)
(1.85461e-43 6.07974e-43 0)
(8.6687e-44 -1.85591e-43 0)
(-2.4856e-44 -4.32385e-43 0)
(-4.72385e-44 1.90184e-43 0)
(1.04471e-44 2.5116e-43 0)
(1.70221e-44 4.04192e-44 0)
(2.78993e-45 7.31625e-45 0)
(5.08589e-46 8.40783e-46 0)
(5.88611e-47 9.8198e-47 0)
(6.88114e-48 9.19656e-48 0)
(6.46122e-49 8.46526e-49 0)
(5.94405e-50 6.81986e-50 0)
(5.16473e-51 4.9563e-51 0)
(5.1812e-51 -4.98246e-51 0)
(5.9642e-50 -6.85514e-50 0)
(6.47599e-49 -8.51431e-49 0)
(6.87795e-48 -9.25839e-48 0)
(5.83519e-47 -9.89562e-47 0)
(4.94521e-46 -8.48761e-46 0)
(2.48196e-45 -7.39856e-45 0)
(1.1222e-44 -4.10458e-44 0)
(-9.00866e-44 -2.5568e-43 0)
(-1.69725e-42 -1.91871e-43 0)
(-2.51666e-41 7.12569e-43 0)
(-3.77081e-40 7.43156e-42 0)
(-5.14874e-39 1.01501e-40 0)
(-7.11852e-38 1.25916e-39 0)
(-8.57466e-37 1.30831e-38 0)
(-1.08665e-35 2.6636e-38 0)
(-1.09998e-34 -3.42431e-36 0)
(-1.26155e-33 -1.35493e-34 0)
(-9.09672e-33 -3.21949e-33 0)
(-8.64551e-32 -5.34535e-32 0)
(3.10417e-34 -5.03998e-31 0)
(8.66591e-32 -5.35382e-32 0)
(5.45459e-33 -5.94329e-33 0)
(8.82294e-33 -1.85952e-33 0)
(1.03601e-33 -1.48294e-33 0)
(2.02787e-34 -1.59361e-34 0)
(2.09556e-35 -2.11188e-35 0)
(2.62929e-36 -1.86893e-36 0)
(2.40964e-37 -1.8212e-37 0)
(2.37406e-38 -1.4491e-38 0)
(1.94623e-39 -1.19531e-39 0)
(1.62681e-40 -8.68553e-41 0)
(1.20595e-41 -6.32101e-42 0)
(8.91529e-43 -3.83079e-43 0)
(6.43486e-44 -3.89614e-44 0)
(2.66106e-45 -2.79134e-44 0)
(-2.25895e-45 1.14049e-44 0)
(5.61497e-46 1.52349e-44 0)
(8.99515e-46 2.47589e-45 0)
(1.49072e-46 4.49816e-46 0)
(2.75144e-47 5.20012e-47 0)
(3.21704e-48 6.08192e-48 0)
(3.79356e-49 5.71256e-49 0)
(3.5896e-50 5.25759e-50 0)
(3.32186e-51 4.23912e-51 0)
(2.90416e-52 3.07768e-52 0)
(2.93985e-52 -3.08258e-52 0)
(3.39038e-51 -4.23802e-51 0)
(3.7123e-50 -5.24035e-50 0)
(4.01486e-49 -5.65514e-49 0)
(3.60851e-48 -5.9411e-48 0)
(3.44322e-47 -4.89431e-47 0)
(2.67518e-46 -3.89364e-46 0)
(2.90415e-45 -1.35519e-45 0)
(3.29818e-44 4.51327e-45 0)
(5.1266e-43 3.17232e-43 0)
(7.69803e-42 5.32822e-42 0)
(1.13082e-40 7.99242e-41 0)
(1.52971e-39 1.17642e-39 0)
(2.05505e-38 1.5451e-38 0)
(2.45246e-37 1.85956e-37 0)
(2.98307e-36 1.2542e-36 0)
(2.99413e-35 -1.52629e-35 0)
(3.22304e-34 -1.07533e-33 0)
(2.32073e-33 -3.00293e-32 0)
(1.96002e-32 -6.03189e-31 0)
(8.31005e-33 -8.15986e-30 0)
(-1.03144e-32 -6.05182e-31 0)
(1.15171e-31 -7.10947e-32 0)
(1.31283e-31 -5.60256e-33 0)
(1.11707e-32 -2.9704e-34 0)
(2.13329e-33 -1.18567e-35 0)
(1.97766e-34 -3.02967e-37 0)
(2.43263e-35 -8.40481e-40 0)
(2.11696e-36 7.53298e-40 0)
(2.05324e-37 7.22128e-41 0)
(1.6336e-38 5.80579e-42 0)
(1.34875e-39 3.94296e-43 0)
(9.80797e-41 2.74158e-44 0)
(7.16417e-42 3.81778e-45 0)
(4.79164e-43 -4.9166e-46 0)
(3.15867e-44 -1.40749e-45 0)
(1.82216e-45 6.20943e-46 0)
(1.48569e-46 8.24076e-46 0)
(5.58397e-47 1.35425e-46 0)
(8.56859e-48 2.48463e-47 0)
(1.53615e-48 2.89916e-48 0)
(1.79115e-49 3.41402e-49 0)
(2.10787e-50 3.2282e-50 0)
(1.99707e-51 2.98469e-51 0)
(1.84771e-52 2.41741e-52 0)
(1.70314e-53 1.75916e-53 0)
(3.4889e-53 -1.77652e-53 0)
(5.72396e-52 -2.44636e-52 0)
(9.77083e-51 -3.03622e-51 0)
(1.73084e-49 -3.3188e-50 0)
(3.04854e-48 -3.57578e-49 0)
(5.43364e-47 -3.18292e-48 0)
(9.41133e-46 -2.98645e-47 0)
(1.61215e-44 -2.21384e-46 0)
(2.6358e-43 -2.2918e-45 0)
(4.22565e-42 -2.4476e-44 0)
(6.36651e-41 -3.8229e-43 0)
(9.43763e-40 -5.74215e-42 0)
(1.28719e-38 -8.4273e-41 0)
(1.75136e-37 -1.06838e-39 0)
(2.11281e-36 -1.14091e-38 0)
(2.61828e-35 -7.8586e-39 0)
(2.66964e-34 3.87339e-36 0)
(2.9644e-33 1.57554e-34 0)
(2.19772e-32 4.0276e-33 0)
(1.98628e-31 7.70275e-32 0)
(1.33038e-31 1.0047e-30 0)
(-5.43939e-32 7.69262e-32 0)
(8.21521e-33 -6.99207e-32 0)
(7.41584e-33 -4.27211e-33 0)
(9.0031e-34 1.14727e-33 0)
(1.81663e-34 1.4541e-34 0)
(1.91599e-35 2.06944e-35 0)
(2.44392e-36 1.86112e-36 0)
(2.26451e-37 1.82379e-37 0)
(2.25076e-38 1.45297e-38 0)
(1.85716e-39 1.19867e-39 0)
(1.56068e-40 8.70631e-41 0)
(1.1622e-41 6.35206e-42 0)
(8.60444e-43 4.24342e-43 0)
(5.85095e-44 2.79867e-44 0)
(3.90497e-45 1.65498e-45 0)
(2.37991e-46 1.39133e-46 0)
(1.64973e-47 5.13043e-47 0)
(3.35697e-48 7.83031e-48 0)
(4.68078e-49 1.39513e-48 0)
(8.06195e-50 1.62298e-49 0)