/*--------------------------------*- C++ -*----------------------------------*\
| =========                 |                                                 |
| \\      /  F ield         | OpenFOAM: The Open Source CFD Toolbox           |
|  \\    /   O peration     | Version:  2.4.0                                 |
|   \\  /    A nd           | Web:      www.OpenFOAM.org                      |
|    \\/     M anipulation  |                                                 |
\*---------------------------------------------------------------------------*/
FoamFile
{
    version     2.0;
    format      ascii;
    class       volVectorField;
    location    "0.6";
    object      U;
}
// * * * * * * * * * * * * * * * * * * * * * * * * * * * * * * * * * * * * * //

dimensions      [0 1 -1 0 0 0 0];

internalField   nonuniform List<vector> 
1915
(
(-1.74049e-32 1.58535e-32 0)
(-2.56375e-33 1.71975e-33 0)
(-2.86138e-34 1.9579e-34 0)
(-3.30559e-35 1.87844e-35 0)
(-3.27068e-36 1.8132e-36 0)
(-3.2151e-37 1.57846e-37 0)
(-2.861e-38 1.35409e-38 0)
(-2.48996e-39 1.08085e-39 0)
(-2.01889e-40 8.4267e-41 0)
(-1.59187e-41 6.21945e-42 0)
(-1.18876e-42 4.4692e-43 0)
(-8.62007e-44 3.07244e-44 0)
(-5.98004e-45 2.05517e-45 0)
(-3.93175e-46 1.32733e-46 0)
(1.33209e-46 1.23193e-47 0)
(2.49669e-45 4.9885e-47 0)
(3.77098e-44 5.84359e-46 0)
(5.52089e-43 6.40736e-45 0)
(7.73863e-42 6.74505e-44 0)
(1.05216e-40 6.36269e-43 0)
(1.35777e-39 5.77097e-42 0)
(1.7022e-38 4.36853e-41 0)
(1.99744e-37 3.21432e-40 0)
(2.28867e-36 1.61987e-39 0)
(2.39726e-35 8.27414e-39 0)
(-3.97616e-31 8.97933e-35 0)
(-3.5721e-30 2.84565e-35 0)
(-1.6256e-29 2.00104e-35 0)
(-1.60431e-28 3.44753e-36 0)
(-5.30466e-29 6.36205e-37 0)
(1.48946e-28 1.09738e-37 0)
(8.91223e-30 -5.23253e-38 0)
(-4.82852e-29 -8.49249e-36 0)
(1.68765e-30 -2.52705e-34 0)
(5.828e-29 -4.95957e-33 0)
(6.44015e-29 -7.28894e-32 0)
(6.55538e-29 -7.37987e-31 0)
(6.45418e-29 -7.28894e-32 0)
(5.93771e-29 -4.95958e-33 0)
(6.34809e-30 -2.5272e-34 0)
(1.52135e-31 -8.49378e-36 0)
(-5.0082e-30 -4.90221e-38 0)
(-5.28967e-29 2.82218e-38 0)
(-5.15812e-30 8.0254e-39 0)
(-1.16665e-30 9.43481e-40 0)
(-1.31201e-31 1.17779e-40 0)
(-1.86934e-32 1.14499e-41 0)
(-1.97218e-33 1.15223e-42 0)
(-2.22552e-34 1.01916e-43 0)
(-2.13327e-35 9.09646e-45 0)
(-2.06151e-36 7.46222e-46 0)
(-1.79742e-37 6.0666e-47 0)
(-1.54421e-38 4.63347e-48 0)
(-1.23423e-39 3.47357e-49 0)
(-9.63339e-41 2.47677e-50 0)
(-7.11712e-42 1.44728e-51 0)
(-5.11855e-43 -4.33876e-51 0)
(-3.52148e-44 -6.91789e-50 0)
(-2.35591e-45 -1.04645e-48 0)
(-1.3195e-46 -1.55394e-47 0)
(3.30351e-46 -2.24463e-46 0)
(5.45167e-45 -3.19133e-45 0)
(8.30668e-44 -4.40281e-44 0)
(1.20001e-42 -5.99152e-43 0)
(1.65668e-41 -7.87037e-42 0)
(2.16026e-40 -1.02071e-40 0)
(2.7033e-39 -1.26548e-39 0)
(3.16071e-38 -1.54883e-38 0)
(3.56546e-37 -1.78385e-37 0)
(3.6806e-36 -2.03118e-36 0)
(-5.22806e-32 4.1686e-32 0)
(-4.20394e-31 3.10014e-31 0)
(-1.82275e-30 2.22234e-30 0)
(-1.24911e-29 4.25626e-31 0)
(-4.12386e-30 -4.32379e-30 0)
(1.1196e-29 -9.24741e-31 0)
(9.89529e-31 2.72782e-30 0)
(-3.56358e-30 1.60751e-31 0)
(2.06259e-31 -1.51903e-30 0)
(4.71455e-30 -9.40432e-31 0)
(5.41232e-30 -2.03818e-31 0)
(5.5367e-30 -7.39634e-31 0)
(5.40976e-30 4.27538e-32 0)
(4.83908e-30 8.3734e-31 0)
(7.18862e-31 8.56394e-31 0)
(2.02695e-32 2.17346e-31 0)
(-5.58932e-31 7.41031e-31 0)
(-4.10388e-30 1.93651e-33 0)
(-5.78902e-31 -7.23023e-31 0)
(-1.36956e-31 -9.97618e-32 0)
(-1.74049e-32 -1.58535e-32 0)
(-2.56375e-33 -1.71975e-33 0)
(-2.86138e-34 -1.9579e-34 0)
(-3.30559e-35 -1.87844e-35 0)
(-3.27068e-36 -1.8132e-36 0)
(-3.2151e-37 -1.57846e-37 0)
(-2.861e-38 -1.35409e-38 0)
(-2.48996e-39 -1.08085e-39 0)
(-2.01889e-40 -8.4267e-41 0)
(-1.59187e-41 -6.21945e-42 0)
(-1.18876e-42 -4.4692e-43 0)
(-8.62008e-44 -3.07244e-44 0)
(-5.9812e-45 -2.05555e-45 0)
(-4.10363e-46 -1.37919e-46 0)
(-1.15014e-46 -8.05514e-47 0)
(-1.03172e-45 -9.00261e-46 0)
(-1.09575e-44 -1.07985e-44 0)
(-1.10044e-43 -1.20934e-43 0)
(-9.56685e-43 -1.30573e-42 0)
(-7.52128e-42 -1.2845e-41 0)
(-3.94195e-41 -1.22732e-40 0)
(-7.01473e-41 -1.0285e-39 0)
(3.05673e-39 -8.64101e-39 0)
(5.25303e-38 -6.10273e-38 0)
(6.67457e-37 -4.86526e-37 0)
(-9.05442e-33 1.31399e-32 0)
(-5.37426e-32 4.28158e-32 0)
(-1.21416e-31 2.50385e-31 0)
(-6.41411e-31 4.18915e-32 0)
(-2.19686e-31 -4.82496e-31 0)
(5.50706e-31 -1.07297e-31 0)
(5.39258e-32 3.0101e-31 0)
(-1.53502e-31 2.08473e-32 0)
(2.57649e-32 -1.71001e-31 0)
(2.59875e-31 -1.09555e-31 0)
(3.18283e-31 -2.65222e-32 0)
(3.23561e-31 -6.5925e-32 0)
(2.99762e-31 6.16147e-33 0)
(2.71557e-31 9.57491e-32 0)
(5.35328e-32 9.84739e-32 0)
(2.80523e-33 2.86943e-32 0)
(-3.43464e-32 8.32383e-32 0)
(-2.16869e-31 2.83342e-34 0)
(-3.712e-32 -8.07467e-32 0)
(-1.61319e-32 -1.31163e-32 0)
(-2.37211e-33 -2.17579e-33 0)
(-4.03678e-34 -2.5084e-34 0)
(-4.81825e-35 -2.92796e-35 0)
(-5.89639e-36 -2.90219e-36 0)
(-6.0406e-37 -2.85077e-37 0)
(-6.11213e-38 -2.53381e-38 0)
(-5.54819e-39 -2.20248e-39 0)
(-4.90813e-40 -1.78391e-40 0)
(-4.0276e-41 -1.4053e-41 0)
(-3.20676e-42 -1.04862e-42 0)
(-2.41239e-43 -7.59875e-44 0)
(-1.75958e-44 -5.26929e-45 0)
(-1.23216e-45 -3.5889e-46 0)
(-1.61623e-46 -7.7325e-47 0)
(-9.78937e-46 -7.16472e-46 0)
(-1.15777e-44 -8.90826e-45 0)
(-1.2791e-43 -1.06915e-43 0)
(-1.35567e-42 -1.19372e-42 0)
(-1.29377e-41 -1.28231e-41 0)
(-1.18366e-40 -1.24335e-40 0)
(-9.13038e-40 -1.16127e-39 0)
(-6.7749e-39 -9.19449e-39 0)
(-3.53042e-38 -7.05585e-38 0)
(-1.77663e-37 -3.87149e-37 0)
(-1.38411e-37 -2.08879e-36 0)
(-4.11986e-32 4.55515e-32 0)
(-7.23938e-32 2.15166e-32 0)
(-1.60994e-32 4.75041e-32 0)
(-2.51425e-32 7.39384e-33 0)
(-8.9005e-33 -6.90315e-32 0)
(1.81492e-32 -1.55407e-32 0)
(1.64841e-33 4.29945e-32 0)
(-3.11537e-33 3.02502e-33 0)
(2.25035e-33 -2.45886e-32 0)
(1.06648e-32 -1.60481e-32 0)
(1.4327e-32 -4.48499e-33 0)
(1.44245e-32 -1.26652e-32 0)
(1.21507e-32 4.78118e-34 0)
(1.14589e-32 1.37471e-32 0)
(3.04683e-33 1.42931e-32 0)
(2.65309e-34 4.31502e-33 0)
(-1.42587e-33 1.20072e-32 0)
(-8.35078e-33 4.88279e-35 0)
(-1.68871e-33 -1.15982e-32 0)
(-1.33802e-33 -1.95657e-33 0)
(-2.22281e-34 -3.54535e-34 0)
(-4.09294e-35 -4.29668e-35 0)
(-5.14579e-36 -5.27861e-36 0)
(-6.50662e-37 -5.40839e-37 0)
(-6.85482e-38 -5.4668e-38 0)
(-7.06687e-39 -4.95728e-39 0)
(-6.52691e-40 -4.38095e-40 0)
(-5.84544e-41 -3.59201e-41 0)
(-4.85304e-42 -2.85785e-42 0)
(-3.8978e-43 -2.14859e-43 0)
(-2.95668e-44 -1.5663e-44 0)
(-2.17487e-45 -1.09319e-45 0)
(-2.12754e-46 -1.05392e-46 0)
(-8.07648e-46 -4.38395e-46 0)
(-9.92649e-45 -5.73991e-45 0)
(-1.19022e-43 -7.19852e-44 0)
(-1.32733e-42 -8.70829e-43 0)
(-1.42388e-41 -9.82442e-42 0)
(-1.37793e-40 -1.06817e-40 0)
(-1.28415e-39 -1.05294e-39 0)
(-1.01345e-38 -1.00159e-38 0)
(-7.7582e-38 -8.14403e-38 0)
(-4.24583e-37 -6.4101e-37 0)
(-2.30314e-36 -3.65535e-36 0)
(-3.39368e-36 -1.99277e-35 0)
(-6.69777e-31 4.23404e-31 0)
(-7.94641e-31 4.46613e-32 0)
(-8.64807e-32 6.56101e-33 0)
(-1.80082e-32 6.86404e-34 0)
(-2.23612e-33 -6.3691e-33 0)
(-3.91871e-34 -1.45823e-33 0)
(-9.32492e-35 3.93286e-33 0)
(3.44442e-34 2.9176e-34 0)
(2.19484e-34 -2.27244e-33 0)
(2.66353e-34 -1.51307e-33 0)
(5.40879e-34 -4.64283e-34 0)
(4.979e-34 -1.23212e-33 0)
(2.34955e-34 2.79097e-35 0)
(3.1985e-34 1.27532e-33 0)
(1.77225e-34 1.33593e-33 0)
(2.70399e-35 4.25695e-34 0)
(-2.38101e-35 1.11083e-33 0)
(-1.42674e-34 5.27133e-36 0)
(-5.07296e-35 -1.06844e-33 0)
(-1.25733e-34 -1.92092e-34 0)
(-2.25226e-35 -3.65045e-35 0)
(-4.4624e-36 -4.6213e-36 0)
(-5.81324e-37 -5.84747e-37 0)
(-7.58289e-38 -6.15593e-38 0)
(-8.15555e-39 -6.3383e-39 0)
(-8.55357e-40 -5.84791e-40 0)
(-8.0019e-41 -5.23222e-41 0)
(-7.24128e-42 -4.34057e-42 0)
(-6.06106e-43 -3.48382e-43 0)
(-4.89969e-44 -2.64115e-44 0)
(-3.7383e-45 -1.93907e-45 0)
(-3.10783e-46 -1.53783e-46 0)
(-5.04668e-46 -2.68106e-46 0)
(-6.42177e-45 -3.57064e-45 0)
(-8.047e-44 -4.76464e-44 0)
(-9.72729e-43 -6.02977e-43 0)
(-1.09635e-41 -7.37747e-42 0)
(-1.19078e-40 -8.42839e-41 0)
(-1.17234e-39 -9.31511e-40 0)
(-1.11423e-38 -9.35485e-39 0)
(-9.06267e-38 -9.12493e-38 0)
(-7.17246e-37 -7.64034e-37 0)
(-4.18916e-36 -6.25731e-36 0)
(-2.43944e-35 -3.73665e-35 0)
(-5.35721e-35 -2.15775e-34 0)
(-2.95606e-32 4.95569e-31 0)
(-7.39184e-32 4.59641e-32 0)
(-1.10644e-32 -6.75451e-33 0)
(-2.30504e-33 -1.29394e-33 0)
(-2.93786e-34 -8.85639e-34 0)
(-1.07316e-34 -1.76771e-34 0)
(-1.7215e-35 3.99638e-34 0)
(4.73177e-35 2.98079e-35 0)
(1.80762e-35 -2.33797e-34 0)
(-1.62716e-36 -1.57979e-34 0)
(1.80629e-35 -5.41956e-35 0)
(1.2457e-35 -1.55444e-34 0)
(-1.05765e-35 -1.90796e-36 0)
(1.48313e-36 1.30506e-34 0)
(1.04555e-35 1.38166e-34 0)
(2.2983e-36 4.49561e-35 0)
(1.89946e-36 1.14499e-34 0)
(8.67585e-36 6.01073e-37 0)
(-3.96697e-37 -1.09798e-34 0)
(-1.00646e-35 -2.01888e-35 0)
(-1.90936e-36 -4.02831e-36 0)
(-3.94243e-37 -5.25117e-37 0)
(-5.29086e-38 -6.83863e-38 0)
(-7.04665e-39 -7.34523e-39 0)
(-7.71919e-40 -7.69266e-40 0)
(-8.20255e-41 -7.18896e-41 0)
(-7.76684e-42 -6.49944e-42 0)
(-7.09125e-43 -5.43613e-43 0)
(-5.9849e-44 -4.39164e-44 0)
(-4.86982e-45 -3.34708e-45 0)
(-3.93563e-46 -2.5259e-46 0)
(-3.18367e-46 -1.07567e-46 0)
(-4.009e-45 -1.30744e-45 0)
(-5.34465e-44 -1.81369e-44 0)
(-6.75889e-43 -2.43939e-43 0)
(-8.26282e-42 -3.1204e-42 0)
(-9.4305e-41 -3.86367e-41 0)
(-1.0412e-39 -4.49049e-40 0)
(-1.04454e-38 -5.05682e-39 0)
(-1.01875e-37 -5.226e-38 0)
(-8.5551e-37 -5.25339e-37 0)
(-7.0956e-36 -4.62282e-36 0)
(-4.44673e-35 -3.96225e-35 0)
(-2.88902e-34 -2.57299e-34 0)
(-8.87524e-34 -1.54902e-33 0)
(5.11449e-33 1.26157e-30 0)
(-7.73953e-33 1.28117e-31 0)
(-1.25482e-33 7.8894e-33 0)
(-3.55596e-34 2.96068e-34 0)
(-4.95604e-35 -6.54614e-35 0)
(-1.55495e-35 -1.56202e-35 0)
(-2.28587e-36 3.29432e-35 0)
(4.70104e-36 2.51675e-36 0)
(1.56055e-36 -1.94934e-35 0)
(-9.61483e-37 -1.33675e-35 0)
(7.51358e-37 -4.96274e-36 0)
(3.127e-38 -1.41986e-35 0)
(-2.16332e-36 -4.27761e-37 0)
(-8.0312e-37 1.08597e-35 0)
(7.37246e-37 1.15919e-35 0)
(2.00722e-37 3.88466e-36 0)
(3.11094e-37 9.55432e-36 0)
(1.48192e-36 5.49945e-38 0)
(1.09485e-37 -9.13503e-36 0)
(-8.56384e-37 -1.7389e-36 0)
(-1.66901e-37 -3.57798e-37 0)
(-3.55767e-38 -4.79247e-38 0)
(-4.86596e-39 -6.36629e-39 0)
(-6.59269e-40 -6.96265e-40 0)
(-7.31492e-41 -7.38738e-41 0)
(-7.85537e-42 -6.98753e-42 0)
(-7.50144e-43 -6.37372e-43 0)
(-6.89519e-44 -5.37542e-44 0)
(-5.85226e-45 -4.37006e-45 0)
(-4.84925e-46 -3.37291e-46 0)
(-1.39089e-46 -6.10513e-47 0)
(-1.48276e-45 -5.46997e-46 0)
(-2.05359e-44 -7.96169e-45 0)
(-2.75994e-43 -1.11553e-43 0)
(-3.52721e-42 -1.51648e-42 0)
(-4.36296e-41 -1.96178e-41 0)
(-5.06463e-40 -2.46274e-40 0)
(-5.69676e-39 -2.90388e-39 0)
(-5.88208e-38 -3.3322e-38 0)
(-5.91984e-37 -3.51147e-37 0)
(-5.24993e-36 -3.63132e-36 0)
(-4.62035e-35 -3.28923e-35 0)
(-3.2827e-34 -2.9673e-34 0)
(-2.43701e-33 -2.02934e-33 0)
(-1.14926e-32 -1.39103e-32 0)
(-4.29757e-32 8.41478e-31 0)
(1.64334e-32 8.73375e-32 0)
(1.77649e-33 7.28777e-33 0)
(1.59153e-34 5.22001e-34 0)
(3.32061e-36 3.89535e-35 0)
(-2.37723e-36 2.74607e-36 0)
(-4.65629e-37 3.27853e-36 0)
(3.26625e-37 2.60556e-37 0)
(1.14411e-37 -1.68864e-36 0)
(-9.14431e-38 -1.17493e-36 0)
(4.31091e-38 -4.7574e-37 0)
(-2.34712e-38 -1.42631e-36 0)
(-2.01042e-37 -7.35926e-38 0)
(-8.53143e-38 9.36146e-37 0)
(5.13544e-38 1.0094e-36 0)
(1.55608e-38 3.43279e-37 0)
(2.78264e-38 8.30329e-37 0)
(1.30331e-37 5.07772e-39 0)
(1.21282e-38 -7.92267e-37 0)
(-6.47765e-38 -1.5326e-37 0)
(-1.29597e-38 -3.2391e-38 0)
(-2.82026e-39 -4.41632e-39 0)
(-3.92682e-40 -5.96509e-40 0)
(-5.3894e-41 -6.607e-41 0)
(-6.05265e-42 -7.08402e-42 0)
(-6.55687e-43 -6.75759e-43 0)
(-6.31352e-44 -6.2056e-44 0)
(-5.83875e-45 -5.26283e-45 0)
(-5.01015e-46 -4.29764e-46 0)
(-8.23746e-47 -3.44479e-47 0)
(-6.26554e-46 -2.45759e-47 0)
(-9.09624e-45 -3.41328e-46 0)
(-1.2734e-43 -5.06829e-45 0)
(-1.72946e-42 -7.31546e-44 0)
(-2.23481e-41 -1.01051e-42 0)
(-2.80202e-40 -1.35589e-41 0)
(-3.29909e-39 -1.72376e-40 0)
(-3.7801e-38 -2.13255e-39 0)
(-3.97801e-37 -2.46068e-38 0)
(-4.11482e-36 -2.78249e-37 0)
(-3.74852e-35 -2.86025e-36 0)
(-3.45485e-34 -2.93639e-35 0)
(-2.55336e-33 -2.60323e-34 0)
(-2.08711e-32 -2.35621e-33 0)
(-1.03959e-31 -1.52426e-32 0)
(-7.94289e-32 -3.13766e-31 0)
(-5.81005e-32 -1.71365e-32 0)
(-9.16037e-33 1.09045e-32 0)
(-2.06629e-33 1.69311e-33 0)
(-2.74025e-34 2.68008e-34 0)
(-4.00751e-35 2.94503e-35 0)
(-4.55603e-36 3.53963e-36 0)
(-4.94189e-37 3.36049e-37 0)
(-4.28799e-38 -9.87184e-38 0)
(-1.23468e-38 -8.8191e-38 0)
(3.36333e-39 -3.91062e-38 0)
(-2.52581e-39 -1.19134e-37 0)
(-1.72557e-38 -7.84945e-39 0)
(-7.35399e-39 7.11196e-38 0)
(3.76401e-39 7.73437e-38 0)
(1.2026e-39 2.68044e-38 0)
(2.25619e-39 6.34281e-38 0)
(1.04494e-38 4.1088e-40 0)
(1.03614e-39 -6.03976e-38 0)
(-4.95518e-39 -1.19446e-38 0)
(-1.0053e-39 -2.57207e-39 0)
(-2.22401e-40 -3.56818e-40 0)
(-3.13383e-41 -4.88106e-41 0)
(-4.34548e-42 -5.47176e-42 0)
(-4.92198e-43 -5.9181e-43 0)
(-5.36792e-44 -5.69229e-44 0)
(-5.19861e-45 -5.25911e-45 0)
(-4.82986e-46 -4.48589e-46 0)
(-4.33587e-47 -3.71255e-47 0)
(-3.47476e-47 -8.62046e-48 0)
(-4.80044e-46 -9.32642e-47 0)
(-7.08648e-45 -1.46286e-45 0)
(-1.01434e-43 -2.20785e-44 0)
(-1.39306e-42 -3.25755e-43 0)
(-1.85097e-41 -4.57445e-42 0)
(-2.33993e-40 -6.30008e-41 0)
(-2.8596e-39 -8.14919e-40 0)
(-3.28046e-38 -1.0421e-38 0)
(-3.64363e-37 -1.22644e-37 0)
(-3.70889e-36 -1.45603e-36 0)
(-3.67812e-35 -1.54627e-35 0)
(-3.17156e-34 -1.73854e-34 0)
(-2.68708e-33 -1.66661e-33 0)
(-1.67089e-32 -1.77812e-32 0)
(-9.96229e-32 -1.30814e-31 0)
(-7.51653e-31 -2.37122e-32 0)
(-8.77775e-31 -3.52836e-33 0)
(-9.51583e-32 -2.26302e-34 0)
(-1.97435e-32 -7.72753e-36 0)
(-2.2812e-33 5.30235e-37 0)
(-3.15648e-34 1.02138e-37 0)
(-3.35532e-35 2.98782e-38 0)
(-3.73293e-36 2.5309e-39 0)
(-3.57891e-37 -9.82972e-39 0)
(-3.48868e-38 -7.0525e-39 0)
(-2.67721e-39 -3.27957e-39 0)
(-4.47299e-40 -1.02506e-38 0)
(-1.31316e-39 -8.23935e-40 0)
(-5.45951e-40 5.42121e-39 0)
(2.57129e-40 5.95395e-39 0)
(8.53936e-41 2.08655e-39 0)
(1.62975e-40 4.87721e-39 0)
(7.43489e-40 3.28579e-41 0)
(7.59008e-41 -4.63754e-39 0)
(-3.4751e-40 -9.28519e-40 0)
(-7.16585e-41 -2.03073e-40 0)
(-1.60457e-41 -2.85037e-41 0)
(-2.28797e-42 -3.93894e-42 0)
(-3.19897e-43 -4.45318e-43 0)
(-3.65343e-44 -4.84876e-44 0)
(-4.00757e-45 -4.69069e-45 0)
(-3.90362e-46 -4.35273e-46 0)
(-3.69515e-47 -3.72538e-47 0)
(-1.21946e-47 -2.85221e-48 0)
(-1.44747e-46 3.2206e-48 0)
(-2.24226e-45 5.46633e-47 0)
(-3.35224e-44 8.40295e-46 0)
(-4.87635e-43 1.24501e-44 0)
(-6.78705e-42 1.78974e-43 0)
(-9.19711e-41 2.46419e-42 0)
(-1.18005e-39 3.28398e-41 0)
(-1.47885e-38 4.13216e-40 0)
(-1.72492e-37 4.95696e-39 0)
(-1.98267e-36 5.25123e-38 0)
(-2.05605e-35 4.4655e-37 0)
(-2.14544e-34 5.29338e-37 0)
(-1.88745e-33 -8.76538e-35 0)
(-1.74324e-32 -2.66977e-33 0)
(-1.09923e-31 -4.93947e-32 0)
(-7.99101e-31 -6.35899e-31 0)
(-6.796e-32 -5.40414e-32 0)
(-6.39888e-32 -1.77075e-32 0)
(-9.94749e-33 -1.31552e-32 0)
(-2.20499e-33 -1.80175e-33 0)
(-2.88888e-34 -2.71274e-34 0)
(-4.17622e-35 -2.94762e-35 0)
(-4.71217e-36 -3.30006e-36 0)
(-5.39724e-37 -3.168e-37 0)
(-5.3581e-38 -3.10408e-38 0)
(-5.28161e-39 -3.14143e-39 0)
(-4.40082e-40 -4.72714e-40 0)
(-5.43055e-41 -8.01284e-40 0)
(-9.9229e-41 -7.305e-41 0)
(-3.96631e-41 3.78752e-40 0)
(1.74777e-41 4.19788e-40 0)
(5.96567e-42 1.49083e-40 0)
(1.14962e-41 3.43287e-40 0)
(5.1946e-41 2.40271e-42 0)
(5.37655e-42 -3.25951e-40 0)
(-2.41579e-41 -6.62751e-41 0)
(-5.03256e-42 -1.4664e-41 0)
(-1.13792e-42 -2.08251e-42 0)
(-1.63613e-43 -2.90153e-43 0)
(-2.30241e-44 -3.30743e-44 0)
(-2.64507e-45 -3.62207e-45 0)
(-2.91398e-46 -3.52393e-46 0)
(-2.84874e-47 -3.28267e-47 0)
(-2.55241e-48 -2.73108e-48 0)
(1.60974e-48 1.30088e-48 0)
(2.91543e-47 2.5243e-47 0)
(4.4999e-46 4.02779e-46 0)
(6.68613e-45 6.25201e-45 0)
(9.65284e-44 9.34865e-44 0)
(1.33338e-42 1.36006e-42 0)
(1.78936e-41 1.89248e-41 0)
(2.27411e-40 2.56107e-40 0)
(2.81284e-39 3.26881e-39 0)
(3.2407e-38 4.02663e-38 0)
(3.65567e-37 4.4354e-37 0)
(3.72863e-36 4.25447e-36 0)
(3.77748e-35 1.9016e-35 0)
(3.2447e-34 -4.0511e-34 0)
(2.83694e-33 -1.70994e-32 0)
(1.71756e-32 -3.61469e-31 0)
(1.08205e-31 -5.57742e-30 0)
(-1.36135e-32 -4.67812e-31 0)
(1.5609e-33 -4.90812e-32 0)
(-1.05436e-34 -4.75733e-33 0)
(-1.59382e-34 -4.07487e-34 0)
(-2.92603e-35 -4.33657e-35 0)
(-5.37054e-36 -4.37321e-36 0)
(-6.8068e-37 -4.79205e-37 0)
(-8.51807e-38 -4.70007e-38 0)
(-8.94161e-39 -4.63097e-39 0)
(-9.16507e-40 -4.43275e-40 0)
(-8.1931e-41 -5.38918e-41 0)
(-8.38843e-42 -6.27454e-41 0)
(-7.20569e-42 -6.33369e-42 0)
(-2.70215e-42 2.61422e-41 0)
(1.11324e-42 2.92704e-41 0)
(3.91022e-43 1.04878e-41 0)
(7.58943e-43 2.39236e-41 0)
(3.39149e-42 1.72019e-43 0)
(3.55448e-43 -2.26921e-41 0)
(-1.57348e-42 -4.65925e-42 0)
(-3.31695e-43 -1.04067e-42 0)
(-7.55669e-44 -1.49014e-43 0)
(-1.09565e-44 -2.08951e-44 0)
(-1.5501e-45 -2.39584e-45 0)
(-1.79108e-46 -2.63504e-46 0)
(-1.98021e-47 -2.57378e-47 0)
(-1.87633e-48 -2.40467e-48 0)
(9.65345e-49 -2.08421e-49 0)
(1.88856e-47 -3.80517e-50 0)
(3.0131e-46 -3.46568e-49 0)
(4.67597e-45 -5.50793e-48 0)
(6.99013e-44 -8.55546e-47 0)
(1.01675e-42 -1.27991e-45 0)
(1.41483e-41 -1.86324e-44 0)
(1.91686e-40 -2.59284e-43 0)
(2.45841e-39 -3.50752e-42 0)
(3.07979e-38 -4.46091e-41 0)
(3.58962e-37 -5.432e-40 0)
(4.12336e-36 -5.73423e-39 0)
(4.27083e-35 -4.6658e-38 0)
(4.45163e-34 8.66171e-38 0)
(3.90864e-33 1.44838e-35 0)
(3.60369e-32 4.2888e-34 0)
(2.2653e-31 8.40453e-33 0)
(1.64246e-30 1.23442e-31 0)
(9.19046e-33 -4.7364e-31 0)
(-4.94427e-33 -4.89438e-32 0)
(-6.34416e-34 -3.67626e-33 0)
(-1.26426e-34 -2.23895e-34 0)
(-1.47173e-35 -1.38966e-35 0)
(-1.95597e-36 -9.67209e-37 0)
(-2.06714e-37 -8.88668e-38 0)
(-2.25415e-38 -8.42383e-39 0)
(-2.15439e-39 -8.35654e-40 0)
(-2.04462e-40 -7.80421e-41 0)
(-1.75909e-41 -7.99444e-42 0)
(-1.56588e-42 -4.76512e-42 0)
(-5.65985e-43 -5.10562e-43 0)
(-1.84807e-43 1.69016e-42 0)
(6.93618e-44 1.91233e-42 0)
(2.50552e-44 6.92134e-43 0)
(4.9017e-44 1.56176e-42 0)
(2.17397e-43 1.15302e-44 0)
(2.29739e-44 -1.47984e-42 0)
(-1.00729e-43 -3.07345e-43 0)
(-2.14096e-44 -6.91499e-44 0)
(-4.90674e-45 -9.98386e-45 0)
(-7.1578e-46 -1.40741e-45 0)
(-1.01678e-46 -1.62302e-46 0)
(-1.17975e-47 -1.79174e-47 0)
(-1.30778e-48 -1.75716e-48 0)
(-1.23449e-49 -1.69795e-49 0)
(7.69752e-50 -1.05439e-49 0)
(1.45625e-48 -1.54342e-48 0)
(2.30771e-47 -2.54077e-47 0)
(3.55319e-46 -4.05152e-46 0)
(5.27011e-45 -6.28953e-45 0)
(7.59162e-44 -9.40558e-44 0)
(1.04642e-42 -1.36851e-42 0)
(1.40027e-41 -1.90439e-41 0)
(1.77492e-40 -2.57746e-40 0)
(2.18698e-39 -3.28964e-39 0)
(2.51111e-38 -4.05152e-38 0)
(2.81698e-37 -4.45782e-37 0)
(2.86007e-36 -4.25909e-36 0)
(2.87175e-35 -1.84131e-35 0)
(2.45005e-34 4.26732e-34 0)
(2.10487e-33 1.76302e-32 0)
(1.25843e-32 3.71304e-31 0)
(7.5105e-32 5.71652e-30 0)
(-6.72674e-34 -8.11376e-32 0)
(3.39221e-34 -1.18837e-32 0)
(4.18126e-35 -1.11739e-33 0)
(5.5879e-36 -7.87108e-35 0)
(4.25846e-37 -5.64504e-36 0)
(2.14388e-38 -4.09083e-37 0)
(-6.5718e-40 -3.5277e-38 0)
(-3.65889e-40 -3.02132e-39 0)
(-5.81636e-41 -2.70222e-40 0)
(-7.4485e-42 -2.27622e-41 0)
(-7.77706e-43 -1.95533e-42 0)
(-8.10604e-44 -4.37646e-43 0)
(-3.53881e-44 -4.57543e-44 0)
(-1.15921e-44 1.06741e-43 0)
(4.12787e-45 1.22607e-43 0)
(1.52836e-45 4.47124e-44 0)
(3.01008e-45 1.0015e-43 0)
(1.32384e-44 7.53729e-46 0)
(1.41159e-45 -9.48256e-44 0)
(-6.12706e-45 -1.98515e-44 0)
(-1.31432e-45 -4.49233e-45 0)
(-3.02629e-46 -6.52525e-46 0)
(-4.44163e-47 -9.23554e-47 0)
(-6.33073e-48 -1.06946e-47 0)
(-7.37617e-49 -1.18379e-48 0)
(-8.38654e-50 -1.16416e-49 0)
(-4.12166e-50 -1.1496e-50 0)
(-5.608e-49 -1.09455e-50 0)
(-9.22609e-48 -1.68246e-49 0)
(-1.47114e-46 -2.75349e-48 0)
(-2.28377e-45 -4.36358e-47 0)
(-3.41525e-44 -6.72444e-46 0)
(-4.96987e-43 -9.98259e-45 0)
(-6.91906e-42 -1.43932e-43 0)
(-9.37998e-41 -1.98473e-42 0)
(-1.20381e-39 -2.65229e-41 0)
(-1.50938e-38 -3.33455e-40 0)
(-1.76089e-37 -3.98901e-39 0)
(-2.0252e-36 -4.12933e-38 0)
(-2.10046e-35 -3.20161e-37 0)
(-2.19328e-34 8.56382e-37 0)
(-1.92953e-33 1.0331e-34 0)
(-1.78345e-32 2.84879e-33 0)
(-1.1241e-31 5.14783e-32 0)
(-8.17666e-31 6.56012e-31 0)
(-9.97753e-33 -4.9954e-31 0)
(5.12229e-33 -5.14032e-32 0)
(6.32703e-34 -3.64671e-33 0)
(1.10087e-34 -1.97478e-34 0)
(1.14743e-35 -8.05309e-36 0)
(1.33682e-36 -2.2249e-37 0)
(1.25652e-37 2.24316e-39 0)
(1.22097e-38 9.16909e-40 0)
(1.04956e-39 1.0231e-40 0)
(9.00661e-41 8.76211e-42 0)
(7.12383e-42 6.99245e-43 0)
(5.53656e-43 3.35572e-44 0)
(3.87779e-44 1.42139e-45 0)
(2.22601e-45 6.75569e-45 0)
(4.41437e-46 7.49379e-45 0)
(1.04428e-46 2.74814e-45 0)
(1.81379e-46 6.10199e-45 0)
(7.8914e-46 4.67998e-47 0)
(8.4704e-47 -5.77317e-45 0)
(-3.6491e-46 -1.21939e-45 0)
(-7.88167e-47 -2.77192e-46 0)
(-1.82126e-47 -4.05061e-47 0)
(-2.68526e-48 -5.75219e-48 0)
(-3.83667e-49 -6.6877e-49 0)
(-4.48454e-50 -7.4191e-50 0)
(-5.32278e-51 -7.2171e-51 0)
(-6.2685e-51 1.02873e-51 0)
(-9.71793e-50 2.98091e-50 0)
(-1.59082e-48 5.05028e-49 0)
(-2.5217e-47 8.32174e-48 0)
(-3.88745e-46 1.32728e-46 0)
(-5.77334e-45 2.06102e-45 0)
(-8.32996e-44 3.08312e-44 0)
(-1.15012e-42 4.48815e-43 0)
(-1.54238e-41 6.25107e-42 0)
(-1.95942e-40 8.47885e-41 0)
(-2.42165e-39 1.08904e-39 0)
(-2.78907e-38 1.3674e-38 0)
(-3.14278e-37 1.60045e-37 0)
(-3.20487e-36 1.85427e-36 0)
(-3.24079e-35 1.95894e-35 0)
(-2.78331e-34 2.12057e-34 0)
(-2.42179e-33 2.01306e-33 0)
(-1.46415e-32 2.03014e-32 0)
(-9.03826e-32 1.48223e-31 0)
(1.12961e-32 -4.93337e-31 0)
(-5.80675e-33 -5.05264e-32 0)
(-7.40865e-34 -3.49987e-33 0)
(-1.32724e-34 -1.81518e-34 0)
(-1.42769e-35 -6.047e-36 0)
(-1.71621e-36 -1.40956e-38 0)
(-1.66725e-37 2.48408e-38 0)
(-1.67287e-38 3.07858e-39 0)
(-1.48625e-39 3.07723e-40 0)
(-1.3166e-40 2.6654e-41 0)
(-1.07541e-41 2.22576e-42 0)
(-8.62683e-43 1.72709e-43 0)
(-6.52987e-44 1.306e-44 0)
(-4.84843e-45 1.33994e-45 0)
(-3.24773e-46 5.13078e-46 0)
(-1.79778e-47 1.69349e-46 0)
(8.85857e-48 3.6418e-46 0)
(4.50047e-47 2.84888e-48 0)
(4.8699e-48 -3.44082e-46 0)
(-2.08416e-47 -7.31603e-47 0)
(-4.53494e-48 -1.6688e-47 0)
(-1.05076e-48 -2.44966e-48 0)
(-1.55625e-49 -3.48708e-49 0)
(-2.2279e-50 -4.06597e-50 0)
(-2.61047e-51 -4.51606e-51 0)
(-2.93838e-52 -4.14854e-52 0)
(-7.92343e-53 5.12291e-52 0)
(-8.39658e-52 9.5964e-51 0)
(-1.34754e-50 1.61513e-49 0)
(-2.09505e-49 2.64642e-48 0)
(-3.15106e-48 4.19753e-47 0)
(-4.55163e-47 6.47585e-46 0)
(-6.33683e-46 9.62669e-45 0)
(-8.40458e-45 1.39062e-43 0)
(-1.06901e-43 1.92289e-42 0)
(-1.27876e-42 2.58343e-41 0)
(-1.45566e-41 3.28972e-40 0)
(-1.52295e-40 4.0781e-39 0)
(-1.49295e-39 4.71812e-38 0)
(-1.28038e-38 5.35286e-37 0)
(-9.80568e-38 5.52864e-36 0)
(-5.6164e-37 5.7092e-35 0)
(-1.95582e-36 5.10667e-34 0)
(5.04488e-36 4.66244e-33 0)
(1.40433e-34 3.05475e-32 0)
(1.13367e-32 -4.82364e-32 0)
(-6.08797e-33 -6.79496e-33 0)
(-8.06648e-34 -4.45831e-34 0)
(-1.61595e-34 -8.66904e-36 0)
(-1.8959e-35 3.4165e-36 0)
(-2.51562e-36 5.99502e-37 0)
(-2.65847e-37 8.28159e-38 0)
(-2.88995e-38 8.98508e-39 0)
(-2.75619e-39 9.31789e-40 0)
(-2.60553e-40 8.62934e-41 0)
(-2.25735e-41 7.71571e-42 0)
(-1.91097e-42 6.39806e-43 0)
(-1.5175e-43 5.1263e-44 0)
(-1.17166e-44 3.904e-45 0)
(-8.59173e-46 3.09861e-46 0)
(-6.10038e-47 2.93866e-47 0)
(-3.60744e-48 2.21578e-47 0)
(2.24151e-48 2.52128e-49 0)
(2.56114e-49 -1.96596e-47 0)
(-1.16479e-48 -4.21095e-48 0)
(-2.5476e-49 -9.63098e-49 0)
(-5.91301e-50 -1.42008e-49 0)
(-8.78744e-51 -2.02541e-50 0)
(-1.25872e-51 -2.36798e-51 0)
(-1.32084e-52 -2.589e-52 0)
(2.63879e-52 5.76063e-53 0)
(4.85433e-51 1.49227e-51 0)
(8.16975e-50 2.60591e-50 0)
(1.33878e-48 4.41309e-49 0)
(2.12395e-47 7.28477e-48 0)
(3.27803e-46 1.16402e-46 0)
(4.87559e-45 1.81144e-45 0)
(7.04831e-44 2.71571e-44 0)
(9.75553e-43 3.96394e-43 0)
(1.31229e-41 5.53572e-42 0)
(1.67357e-40 7.53434e-41 0)
(2.07814e-39 9.70978e-40 0)
(2.40798e-38 1.22483e-38 0)
(2.733e-37 1.44026e-37 0)
(2.81396e-36 1.68087e-36 0)
(2.87644e-35 1.7905e-35 0)
(2.50823e-34 1.96572e-34 0)
(2.21357e-33 1.89841e-33 0)
(1.3678e-32 1.95835e-32 0)
(8.52309e-32 1.46252e-31 0)
(-1.21914e-32 -3.33936e-32 0)
(-2.42957e-34 -3.58903e-33 0)
(-4.42749e-34 1.32038e-33 0)
(-2.50294e-34 2.58144e-34 0)
(-4.18179e-35 4.3898e-35 0)
(-7.26077e-36 5.15875e-36 0)
(-8.97563e-37 5.96807e-37 0)
(-1.10323e-37 5.92053e-38 0)
(-1.1454e-38 5.76941e-39 0)
(-1.16058e-39 5.11838e-40 0)
(-1.05975e-40 4.42454e-41 0)
(-9.37945e-42 3.57574e-42 0)
(-7.71835e-43 2.80567e-43 0)
(-6.14596e-44 2.08921e-44 0)
(-4.6296e-45 1.51072e-45 0)
(-3.37626e-46 1.04983e-46 0)
(-2.35108e-47 8.18161e-48 0)
(-1.45567e-48 4.63883e-49 0)
(-8.87238e-50 -1.06999e-48 0)
(-6.92476e-50 -2.34857e-49 0)
(-1.42078e-50 -5.4106e-50 0)
(-3.23343e-51 -8.01443e-51 0)
(-4.7973e-52 -1.14504e-51 0)
(-6.37036e-53 -1.34667e-52 0)
(8.44311e-53 -2.43078e-53 0)
(1.65177e-51 -1.72916e-52 0)
(2.88093e-50 -3.05423e-51 0)
(4.87811e-49 -5.30724e-50 0)
(8.05119e-48 -8.95769e-49 0)
(1.28627e-46 -1.473e-47 0)
(2.00132e-45 -2.34454e-46 0)
(2.99975e-44 -3.63181e-45 0)
(4.37755e-43 -5.41976e-44 0)
(6.11153e-42 -7.866e-43 0)
(8.31499e-41 -1.09225e-41 0)
(1.07085e-39 -1.47512e-40 0)
(1.34902e-38 -1.88423e-39 0)
(1.5808e-37 -2.33939e-38 0)
(1.82991e-36 -2.67248e-37 0)
(1.90895e-35 -2.90844e-36 0)
(2.01228e-34 -2.58256e-35 0)
(1.78431e-33 -1.71074e-34 0)
(1.67443e-32 5.1447e-34 0)
(1.06751e-31 3.12816e-32 0)
(8.00062e-31 5.48081e-31 0)
(-5.12432e-32 -4.17023e-31 0)
(-9.22249e-32 -2.60495e-32 0)
(-1.39649e-32 1.26715e-32 0)
(-3.00692e-33 2.01072e-33 0)
(-3.85463e-34 3.21695e-34 0)
(-5.4708e-35 3.55004e-35 0)
(-6.09521e-36 3.99548e-36 0)
(-6.91229e-37 3.83841e-37 0)
(-6.81401e-38 3.67354e-38 0)
(-6.62617e-39 3.19319e-39 0)
(-5.8739e-40 2.72352e-40 0)
(-5.07601e-41 2.16951e-41 0)
(-4.10136e-42 1.68449e-42 0)
(-3.21758e-43 1.24069e-43 0)
(-2.39544e-44 8.88775e-45 0)
(-1.73037e-45 6.09843e-46 0)
(-1.19731e-46 4.07521e-47 0)
(-8.03733e-48 2.6177e-48 0)
(-5.20209e-49 1.04608e-49 0)
(-3.61061e-50 -2.8997e-51 0)
(-2.73067e-51 -2.35693e-51 0)
(-2.88725e-52 -4.03292e-52 0)
(-3.27681e-53 -6.06343e-53 0)
(-1.35498e-53 -8.45589e-54 0)
(-1.7458e-52 -2.38512e-53 0)
(-3.10247e-51 -4.22299e-52 0)
(-5.39188e-50 -7.53483e-51 0)
(-9.10138e-49 -1.31191e-49 0)
(-1.49678e-47 -2.21863e-48 0)
(-2.38252e-46 -3.6565e-47 0)
(-3.69091e-45 -5.83305e-46 0)
(-5.50802e-44 -9.05955e-45 0)
(-7.99472e-43 -1.35548e-43 0)
(-1.1102e-41 -1.97351e-42 0)
(-1.50014e-40 -2.74844e-41 0)
(-1.91919e-39 -3.725e-40 0)
(-2.39591e-38 -4.76788e-39 0)
(-2.78392e-37 -5.91798e-38 0)
(-3.18243e-36 -6.66621e-37 0)
(-3.28317e-35 -6.88048e-36 0)
(-3.39711e-34 -4.75728e-35 0)
(-2.96657e-33 8.3363e-35 0)
(-2.69966e-32 1.39594e-32 0)
(-1.68227e-31 3.33065e-31 0)
(-1.18224e-30 5.50353e-30 0)
(-8.57538e-31 5.91893e-31 0)
(-1.07461e-30 6.26291e-32 0)
(-1.16999e-31 4.50918e-33 0)
(-2.41885e-32 2.46578e-34 0)
(-2.79054e-33 1.0168e-35 0)
(-3.85007e-34 2.87672e-37 0)
(-4.08571e-35 -2.01582e-39 0)
(-4.54004e-36 -1.08582e-39 0)
(-4.35297e-37 -1.22817e-40 0)
(-4.16971e-38 -1.05532e-41 0)
(-3.63022e-39 -8.47248e-43 0)
(-3.10114e-40 -6.31402e-44 0)
(-2.47382e-41 -4.57218e-45 0)
(-1.92311e-42 -3.15557e-46 0)
(-1.41797e-43 -2.12048e-47 0)
(-1.01669e-44 -1.3695e-48 0)
(-6.98158e-46 -8.30239e-50 0)
(-4.66164e-47 -5.22993e-51 0)
(-3.0003e-48 -3.43204e-51 0)
(-1.88089e-49 -6.97208e-52 0)
(-1.14342e-50 -1.56936e-52 0)
(-6.82167e-52 -2.32594e-53 0)
(-4.10538e-53 -3.28035e-54 0)
(-2.28364e-53 3.95095e-55 0)
(-3.75362e-52 1.46757e-53 0)
(-6.69318e-51 2.69483e-52 0)
(-1.16479e-49 4.80475e-51 0)
(-1.96879e-48 8.35701e-50 0)
(-3.2428e-47 1.41181e-48 0)
(-5.16981e-46 2.32398e-47 0)
(-8.02359e-45 3.70285e-46 0)
(-1.19957e-43 5.7428e-45 0)
(-1.74504e-42 8.57985e-44 0)
(-2.42858e-41 1.24687e-42 0)
(-3.29088e-40 1.7328e-41 0)
(-4.2214e-39 2.3399e-40 0)
(-5.28963e-38 2.97366e-39 0)
(-6.16688e-37 3.62021e-38 0)
(-7.08626e-36 3.84476e-37 0)
(-7.34244e-35 3.21605e-36 0)
(-7.65717e-34 -1.95932e-36 0)
(-6.72694e-33 -8.613e-34 0)
(-6.20673e-32 -2.6207e-32 0)
(-3.90471e-31 -5.16821e-31 0)
(-2.83412e-30 -7.61227e-30 0)
(-6.5237e-32 1.5701e-30 0)
(-8.50402e-32 1.46708e-31 0)
(-1.30312e-32 -3.96443e-33 0)
(-2.84128e-33 -1.53021e-33 0)
(-3.67732e-34 -3.00978e-34 0)
(-5.26107e-35 -3.4818e-35 0)
(-5.89432e-36 -3.98574e-36 0)
(-6.7145e-37 -3.84716e-37 0)
(-6.64141e-38 -3.68656e-38 0)
(-6.47627e-39 -3.20499e-39 0)
(-5.7538e-40 -2.73315e-40 0)
(-4.98158e-41 -2.17672e-41 0)
(-4.03139e-42 -1.68973e-42 0)
(-3.16699e-43 -1.24431e-43 0)
(-2.36053e-44 -8.91203e-45 0)
(-1.7069e-45 -6.11389e-46 0)
(-1.18216e-46 -4.07885e-47 0)
(-7.9489e-48 -2.62325e-48 0)
(-5.15173e-49 -1.64353e-49 0)
(-3.24674e-50 -9.9867e-51 0)
(-1.98189e-51 -5.95708e-52 0)
(-1.18009e-52 -3.49085e-53 0)
(-6.48719e-54 -1.95598e-54 0)
(6.39996e-54 1.8402e-54 0)
(1.24386e-52 3.68156e-53 0)
(2.21946e-51 6.74644e-52 0)
(3.8631e-50 1.20368e-50 0)
(6.53089e-49 2.09522e-49 0)
(1.07596e-47 3.54238e-48 0)
(1.7158e-46 5.83638e-47 0)
(2.66383e-45 9.30765e-46 0)
(3.98402e-44 1.44508e-44 0)
(5.7983e-43 2.16128e-43 0)
(8.07354e-42 3.14512e-42 0)
(1.0947e-40 4.37722e-41 0)
(1.4052e-39 5.92466e-40 0)
(1.76232e-38 7.55964e-39 0)
(2.05655e-37 9.29852e-38 0)
(2.36605e-36 1.01805e-36 0)
(2.45493e-35 9.55398e-36 0)
(2.56461e-34 3.5217e-35 0)
(2.25744e-33 -1.16132e-33 0)
(2.08765e-32 -4.4341e-32 0)
(1.31671e-31 -9.17614e-31 0)
(9.57986e-31 -1.39309e-29 0)
(-2.73221e-32 6.74166e-31 0)
(7.5245e-33 7.33682e-32 0)
(5.85848e-34 3.86372e-33 0)
(-6.65733e-35 3.58099e-35 0)
(-2.19798e-35 -3.04086e-35 0)
(-4.90454e-36 -4.64105e-36 0)
(-6.70757e-37 -5.80254e-37 0)
(-8.7928e-38 -5.88009e-38 0)
(-9.4934e-39 -5.76707e-39 0)
(-9.89956e-40 -5.12492e-40 0)
(-9.22742e-41 -4.43182e-41 0)
(-8.30056e-42 -3.58166e-42 0)
(-6.91763e-43 -2.81008e-43 0)
(-5.56625e-44 -2.09219e-44 0)
(-4.22913e-45 -1.51139e-45 0)
(-3.10694e-46 -1.04587e-46 0)
(-2.17983e-47 -7.02734e-48 0)
(-1.4816e-48 -4.55155e-49 0)
(-9.688e-50 -2.86691e-50 0)
(-6.14954e-51 -1.74922e-51 0)
(-3.77474e-52 -1.04136e-52 0)
(-2.24893e-53 -6.04376e-54 0)
(-2.24769e-55 -3.79847e-55 0)
(2.02401e-53 -6.90735e-55 0)
(3.72145e-52 -1.25932e-53 0)
(6.6392e-51 -2.30714e-52 0)
(1.15557e-49 -4.11663e-51 0)
(1.95354e-48 -7.16641e-50 0)
(3.21835e-47 -1.21177e-48 0)
(5.13198e-46 -1.9968e-47 0)
(7.96706e-45 -3.18501e-46 0)
(1.19147e-43 -4.94612e-45 0)