/*--------------------------------*- C++ -*----------------------------------*\
| =========                 |                                                 |
| \\      /  F ield         | OpenFOAM: The Open Source CFD Toolbox           |
|  \\    /   O peration     | Version:  2.4.0                                 |
|   \\  /    A nd           | Web:      www.OpenFOAM.org                      |
|    \\/     M anipulation  |                                                 |
\*---------------------------------------------------------------------------*/
FoamFile
{
    version     2.0;
    format      ascii;
    class       surfaceScalarField;
    location    "0.05";
    object      phi;
}
// * * * * * * * * * * * * * * * * * * * * * * * * * * * * * * * * * * * * * //

dimensions      [0 3 -1 0 0 0 0];

internalField   nonuniform List<scalar> 
15214
(
2.93411e-41
4.63261e-44
2.48774e-40
6.57422e-43
3.34678e-40
4.79688e-41
8.00371e-38
4.67443e-41
2.70783e-44
-9.54173e-41
-8.00367e-38
-9.54167e-41
-3.04945e-40
4.6791e-41
2.93477e-41
4.86724e-41
5.54571e-40
4.92844e-41
8.04011e-38
9.4806e-41
8.03156e-38
-4.79682e-41
-7.94239e-38
-1.42162e-40
2.78534e-40
4.67443e-41
8.00669e-38
9.47131e-41
3.35117e-40
-4.67911e-41
2.48801e-40
-4.79695e-41
2.93212e-41
-6.57472e-43
4.1178e-43
-4.61024e-44
2.66902e-44
-6.52034e-46
3.87777e-46
-2.94744e-47
1.69308e-47
-4.1897e-49
2.44554e-49
-1.38208e-50
7.90229e-51
-1.9241e-52
2.22043e-52
-4.85214e-54
7.90505e-51
4.85349e-54
2.44662e-49
1.92474e-52
1.69386e-47
1.38256e-50
3.88014e-46
4.19158e-49
2.67069e-44
2.94881e-47
4.12151e-43
6.52439e-46
2.93475e-41
4.61315e-44
2.49186e-40
6.58095e-43
3.64026e-40
4.8015e-41
8.02863e-38
4.74024e-41
3.64026e-40
-4.74024e-41
2.49186e-40
-4.8015e-41
2.93475e-41
-6.58095e-43
4.12151e-43
-4.61315e-44
2.67069e-44
-6.52439e-46
3.88014e-46
-2.94881e-47
1.69386e-47
-4.19158e-49
2.44662e-49
-1.38278e-50
7.87792e-51
-3.17913e-52
8.71951e-53
-1.56069e-51
2.72816e-53
-8.61688e-50
-1.33037e-51
6.03081e-43
-4.56776e-44
5.88469e-42
-6.73985e-43
3.48194e-40
-4.90699e-41
6.81098e-40
-4.78136e-41
6.16133e-46
9.7605e-41
-6.81087e-40
9.76043e-41
-3.47581e-40
-4.7861e-41
6.03325e-43
-4.97908e-41
3.53486e-40
-5.04186e-41
1.02989e-39
-9.69778e-41
6.87595e-40
4.90693e-41
-3.26406e-40
1.45419e-40
6.49809e-42
-4.78136e-41
6.81711e-40
-9.68835e-41
3.48205e-40
4.78611e-41
5.88531e-42
4.90706e-41
6.02721e-43
6.74042e-43
1.00736e-44
4.67894e-44
6.04589e-46
6.61619e-46
9.93033e-48
2.97481e-47
4.11505e-49
4.22642e-49
6.54116e-51
1.39003e-50
2.03432e-52
1.93414e-52
6.18037e-54
4.86892e-54
2.03507e-52
-4.87027e-54
6.54417e-51
-1.93479e-52
4.11706e-49
-1.39052e-50
9.93667e-48
-4.2283e-49
6.04994e-46
-2.97618e-47
1.00831e-44
-6.62028e-46
6.03316e-43
-4.68187e-44
5.89477e-42
-6.74674e-43
3.48797e-40
-4.91167e-41
6.86992e-40
-4.84883e-41
3.48797e-40
4.84883e-41
5.89477e-42
4.91167e-41
6.03316e-43
6.74674e-43
1.00831e-44
4.68187e-44
6.04994e-46
6.62028e-46
9.93667e-48
2.97618e-47
4.11704e-49
4.22827e-49
6.5243e-51
1.38309e-50
-7.89913e-52
-4.08698e-51
-9.70041e-52
-5.1844e-50
9.97748e-52
-2.81509e-48
-4.41729e-50
5.10131e-44
-1.11434e-45
1.67122e-43
-1.75022e-44
4.18962e-42
-1.05273e-42
8.07767e-42
-1.01996e-42
6.51353e-47
2.09136e-42
-8.07673e-42
2.09134e-42
-4.13782e-42
-1.02113e-42
5.10004e-44
-1.07138e-42
4.30674e-42
-1.08776e-42
1.23183e-41
-2.07501e-42
8.29659e-42
1.05271e-42
-3.66905e-42
3.11133e-42
2.18989e-43
-1.01996e-42
8.12953e-42
-2.0727e-42
4.19056e-42
1.02113e-42
1.67186e-43
1.05275e-42
5.09363e-44
1.75037e-44
8.6749e-46
1.14569e-45
6.40936e-47
1.83056e-47
1.02259e-48
7.83996e-49
4.51293e-50
1.22191e-50
6.8823e-52
3.86436e-52
2.15769e-53
5.79041e-54
6.26009e-55
1.41158e-55
2.15843e-53
-1.41199e-55
6.88535e-52
-5.7924e-54
4.51506e-50
-3.86578e-52
1.02326e-48
-1.22247e-50
6.4138e-47
-7.84376e-49
8.68468e-46
-1.83174e-47
5.09994e-44
-1.14646e-45
1.6799e-43
-1.75212e-44
4.24062e-42
-1.05388e-42
8.24566e-42
-1.03749e-42
4.24062e-42
1.03749e-42
1.6799e-43
1.05388e-42
5.09994e-44
1.75212e-44
8.68468e-46
1.14646e-45
6.4138e-47
1.83174e-47
1.02326e-48
7.84374e-49
4.50791e-50
1.20849e-50
-2.51846e-52
-2.83501e-51
-4.90829e-50
-1.94276e-49
-4.81505e-50
-2.2736e-48
4.92752e-50
-1.31122e-46
-1.92751e-48
1.10102e-45
-1.10771e-46
2.85754e-45
-1.43285e-45
3.9711e-44
-8.84189e-44
7.51499e-44
-8.57738e-44
1.54624e-48
1.7574e-43
-7.51273e-44
1.75739e-43
-3.85908e-44
-8.58885e-44
1.1007e-45
-8.99648e-44
4.14919e-44
-9.12866e-44
1.15962e-43
-1.7442e-43
7.91276e-44
8.84172e-44
-3.14596e-44
2.61514e-43
3.97925e-45
-8.57738e-44
7.62716e-44
-1.74193e-43
3.97336e-44
8.58885e-44
2.85907e-45
8.84207e-44
1.09918e-45
1.433e-45
2.1026e-47
1.12883e-46
1.51964e-48
1.75344e-48
2.6423e-50
7.96346e-50
1.12967e-51
1.1966e-51
1.84297e-53
3.8117e-53
5.60621e-55
5.48454e-55
1.71594e-56
1.3124e-56
5.60818e-55
-1.31275e-56
1.8438e-53
-5.48632e-55
1.13022e-51
-3.81301e-53
2.64408e-50
-1.19713e-51
1.52075e-48
-7.96722e-50
2.10513e-47
-1.7546e-48
1.10068e-45
-1.12962e-46
2.87857e-45
-1.43467e-45
4.08117e-44
-8.85319e-44
7.80284e-44
-8.72085e-44
4.08117e-44
8.72085e-44
2.87857e-45
8.85319e-44
1.10068e-45
1.43467e-45
2.10513e-47
1.12962e-46
1.52075e-48
1.7546e-48
2.63978e-50
7.96095e-50
-1.2879e-51
-2.69706e-51
-3.11098e-50
-8.76587e-50
-1.58863e-48
-5.16171e-48
-1.55731e-48
-6.02082e-47
1.59139e-48
-3.38141e-45
-5.10482e-47
5.92063e-47
-2.37156e-47
1.20001e-46
-3.7137e-47
2.24677e-46
-1.97769e-45
3.20752e-46
-1.91039e-45
8.56731e-50
3.9257e-45
-3.19564e-46
3.92565e-45
-1.64476e-46
-1.91317e-45
5.91822e-47
-2.01529e-45
2.86758e-46
-2.04842e-45
6.04608e-46
-3.89261e-45
5.00941e-46
1.97663e-45
8.41991e-47
5.83607e-45
1.80275e-46
-1.91037e-45
3.81035e-46
-3.88705e-45
2.25864e-46
1.91317e-45
1.20076e-46
1.97673e-45
5.9098e-47
3.5848e-47
1.10232e-48
2.75649e-48
8.42455e-50
4.66142e-50
1.41911e-51
2.0481e-51
6.10963e-53
3.28755e-53
9.6332e-55
1.01422e-54
2.87831e-56
1.53701e-56
8.50212e-58
3.57201e-58
2.87926e-56
-3.57298e-58
9.63735e-55
-1.53751e-56
6.11247e-53
-1.01457e-54
1.42004e-51
-3.28905e-53
8.43057e-50
-2.0491e-51
1.10368e-48
-4.6646e-50
5.91808e-47
-2.7585e-48
1.21094e-46
-3.58925e-47
2.83857e-46
-1.97944e-45
4.41845e-46
-1.94626e-45
2.83857e-46
1.94626e-45
1.21094e-46
1.97944e-45
5.91808e-47
3.58925e-47
1.10367e-48
2.7585e-48
8.42262e-50
4.65697e-50
-4.58838e-52
-4.22725e-52
-1.10437e-49
-1.6104e-49
-1.37894e-48
-3.51567e-48
-7.4619e-47
-2.20179e-46
-7.3239e-47
-2.50379e-45
7.46847e-47
-1.52411e-43
-2.11938e-45
8.37068e-49
-9.1787e-46
2.98229e-48
-3.85716e-47
-1.45979e-49
-1.29182e-46
-2.86194e-48
-1.00857e-46
2.23626e-51
2.06058e-46
2.90234e-48
2.06092e-46
1.50247e-48
-1.0053e-46
1.3027e-48
-1.05714e-46
1.08745e-48
-1.07393e-46
-1.74697e-48
-2.04418e-46
9.88267e-49
1.03738e-46
6.563e-48
3.06475e-46
3.86438e-48
-1.00379e-46
-1.54525e-48
-2.04119e-46
-1.47304e-49
1.0053e-46
2.53745e-48
1.03743e-46
1.30075e-48
1.82528e-48
2.62156e-50
1.48293e-49
1.95227e-51
2.43479e-51
3.4952e-53
1.07689e-52
1.4592e-54
1.67546e-54
2.41225e-56
5.07763e-56
6.99345e-58
7.44698e-58
2.14056e-59
1.67645e-59
6.99577e-58
-1.67687e-59
2.4133e-56
-7.44926e-58
1.45989e-54
-5.07931e-56
3.49754e-53
-1.67619e-54
1.95371e-51
-1.07739e-52
2.62491e-50
-2.43642e-51
1.30266e-48
-1.48399e-49
2.56171e-48
-1.82761e-48
1.12716e-48
-1.03888e-46
-3.12445e-49
-1.02207e-46
1.12716e-48
1.02207e-46
2.56171e-48
1.03888e-46
1.30266e-48
1.82761e-48
2.62134e-50
1.48376e-49
-2.29921e-52
8.64091e-52
-5.04616e-50
-4.96635e-50
-2.89112e-48
-3.14942e-48
-3.59758e-47
-6.85019e-47
-1.89177e-45
-4.16811e-45
-1.85632e-45
-4.91799e-44
1.88808e-45
-2.89544e-42
-4.19479e-44
-1.25423e-47
-1.8507e-44
1.18919e-47
-1.40325e-45
1.193e-48
-1.17442e-45
3.08172e-49
-2.26864e-47
1.12762e-50
2.94612e-48
2.7075e-49
4.58047e-48
1.39301e-49
-2.24401e-48
5.1177e-50
-2.36837e-48
-3.91044e-50
-2.40906e-48
-3.04846e-49
-4.56703e-48
-1.18634e-49
2.32067e-48
3.31933e-49
6.84694e-48
1.50279e-49
-2.23926e-48
-2.1666e-49
-4.56e-48
-8.61054e-50
2.24281e-48
9.81773e-50
2.3208e-48
5.11013e-50
4.41332e-50
1.00198e-51
3.4846e-51
7.50614e-53
6.08041e-53
1.30748e-54
2.60264e-54
5.3652e-56
4.24368e-56
8.62601e-58
1.24565e-57
2.42378e-59
1.89185e-59
7.20781e-61
4.13236e-61
2.42454e-59
-4.1334e-61
8.62954e-58
-1.89243e-59
5.36759e-56
-1.24607e-57
1.30832e-54
-4.24553e-56
7.51142e-53
-2.60387e-54
1.00324e-51
-6.08453e-53
5.11751e-50
-3.48716e-51
9.91041e-50
-4.41914e-50
-3.60087e-50
-2.32422e-48
-1.69734e-49
-2.28346e-48
-3.60087e-50
2.28346e-48
9.91035e-50
2.32422e-48
5.11318e-50
4.4171e-50
-4.18701e-52
2.65634e-51
-9.12868e-50
-5.81223e-50
-2.05218e-48
-1.78978e-48
-1.25026e-46
-1.20853e-46
-1.52063e-45
-2.56385e-45
-8.6624e-44
-1.69804e-43
-8.51398e-44
-1.9914e-42
8.64004e-44
-1.31179e-40
-1.70921e-42
-5.16409e-46
-7.89561e-43
5.31191e-46
-3.00611e-44
3.42651e-47
-2.10767e-44
1.42259e-47
-3.7715e-46
2.83031e-49
-2.90589e-47
2.72504e-50
-3.1347e-49
3.60191e-51
-1.08459e-49
1.11255e-51
-9.18346e-50
-1.08856e-51
-9.303e-50
-7.23007e-51
-1.7659e-49
-3.00765e-51
8.96923e-50
7.31894e-51
2.64749e-49
3.21132e-51
-8.66296e-50
-5.09771e-51
-1.76324e-49
-2.0853e-51
8.67639e-50
2.0934e-51
8.96969e-50
1.09527e-51
1.66128e-51
2.26924e-53
1.3193e-52
1.6494e-54
2.24484e-54
3.00066e-56
9.44038e-56
1.19148e-57
1.50027e-57
1.97812e-59
4.26765e-59
5.38046e-61
6.30901e-61
1.63465e-62
1.32451e-62
5.38211e-61
-1.32482e-62
1.97892e-59
-6.31081e-61
1.19201e-57
-4.26897e-59
3.00259e-56
-1.50089e-57
1.65057e-54
-9.44458e-56
2.27212e-53
-2.24629e-54
1.09688e-51
-1.32023e-52
2.11444e-51
-1.66343e-51
-1.01279e-51
-8.98266e-50
-4.10288e-51
-8.8293e-50
-1.0131e-51
8.82929e-50
2.10124e-51
8.98231e-50
2.26866e-52
1.41963e-51
-2.79354e-50
-9.578e-51
-1.7392e-48
-6.56912e-49
-3.89383e-47
-2.01224e-47
-2.2983e-45
-1.31588e-45
-2.89534e-44
-2.88599e-44
-1.59539e-42
-1.86171e-42
-1.56801e-42
-2.54468e-41
1.58303e-42
-1.61145e-39
-2.23999e-41
-7.71253e-45
-1.08801e-41
1.19446e-44
-1.13041e-42
1.46113e-45
-1.00572e-42
6.66944e-46
-1.6217e-44
1.23415e-47
-1.28596e-45
9.44393e-49
-1.99206e-47
1.59306e-50
-9.07424e-49
7.15462e-52
-1.55463e-50
-2.50625e-53
-2.44554e-51
-2.29141e-52
-3.81821e-51
-9.70903e-53
1.93801e-51
2.27797e-52
5.71501e-51
9.89924e-53
-1.86792e-51
-1.61544e-52
-3.80613e-51
-6.65001e-53
1.87089e-51
6.45471e-53
1.93827e-51
3.3763e-53
3.79909e-53
6.8324e-55
2.91849e-54
4.88333e-56
5.18934e-56
8.68864e-58
2.10744e-57
3.34536e-59
3.45884e-59
5.42985e-61
9.50951e-61
1.41984e-62
1.4361e-62
4.21046e-64
2.91743e-64
1.42024e-62
-2.91809e-64
5.43192e-61
-1.43651e-62
3.34676e-59
-9.51243e-61
8.69393e-58
-3.46024e-59
4.88662e-56
-2.10837e-57
6.84075e-55
-5.1927e-56
3.3811e-53
-2.92056e-54
6.51814e-53
-3.80407e-53
-3.34251e-53
-1.94113e-51
-1.31014e-52
-1.90599e-51
-4.49397e-53
1.90383e-51
-4.08846e-52
1.83781e-51
-3.28737e-50
-7.70901e-51
-1.02975e-48
-3.00319e-49
-6.84509e-47
-2.17529e-47
-1.49719e-45
-6.49439e-46
-9.62935e-44
-4.63764e-44
-1.20347e-42
-1.00327e-42
-7.43722e-41
-7.31097e-41
-7.32494e-41
-1.0551e-39
7.37932e-41
-7.94833e-38
-9.53851e-40
-1.34145e-44
-4.76429e-40
6.63103e-43
-1.564e-41
3.14433e-44
-1.0706e-41
1.15391e-44
-1.75816e-43
2.18256e-46
-1.18705e-44
1.59839e-47
-1.88112e-46
2.76463e-49
-8.13103e-48
1.18908e-50
-1.25656e-49
1.92482e-52
-4.03869e-51
1.21316e-54
-1.95822e-52
-1.88959e-54
6.81562e-53
4.62066e-54
2.05284e-52
2.0054e-54
-6.71314e-53
-3.28348e-54
-1.36736e-52
-1.35502e-54
6.72336e-53
1.30619e-54
6.96064e-53
6.84778e-55
1.3351e-54
1.44246e-56
1.00773e-55
9.96455e-58
1.75552e-57
1.8279e-59
6.91037e-59
6.78914e-61
1.11047e-60
1.12442e-62
2.93507e-62
2.83672e-64
4.33179e-64
8.49607e-66
8.42045e-66
2.83752e-64
-8.42223e-66
1.12484e-62
-4.33292e-64
6.79194e-61
-2.93591e-62
1.829e-59
-1.11089e-60
9.97121e-58
-6.91327e-59
1.44421e-56
-1.75661e-57
6.85748e-55
-1.00841e-55
1.31912e-54
-1.3368e-54
-7.21886e-55
-6.9706e-53
-4.51536e-54
-6.84992e-53
-1.30959e-52
6.59723e-53
-5.2353e-51
-5.04641e-53
-3.49523e-49
-9.08202e-51
-1.08962e-47
-3.50388e-49
-6.98111e-46
-2.56331e-47
-1.58027e-44
-7.65971e-46
-9.84796e-43
-5.61911e-44
-1.40485e-41
-1.43972e-42
-8.41858e-40
-1.2864e-40
-8.29122e-40
-6.221e-39
8.22976e-40
-4.5039e-37
-6.12054e-39
-2.35409e-41
-3.69868e-44
-2.00836e-40
-5.3117e-43
-2.70706e-40
-4.31314e-41
-7.19823e-38
-4.21413e-41
-2.98335e-51
8.58413e-41
7.19823e-38
8.58413e-41
2.70706e-40
-4.21413e-41
2.00836e-40
-4.31314e-41
2.35259e-41
-5.31185e-43
2.97889e-43
-3.68227e-44
1.91047e-44
-4.70867e-46
2.40394e-46
-2.09824e-47
-2.40394e-46
-5.41444e-49
-1.91047e-44
-2.09824e-47
-2.97889e-43
-4.70867e-46
-2.35259e-41
-3.68227e-44
-2.00837e-40
-5.31186e-43
-2.70725e-40
-4.31314e-41
-7.19826e-38
-4.21418e-41
-2.3545e-41
8.58044e-41
7.17812e-38
8.53096e-41
-2.3545e-41
-8.53096e-41
-7.19826e-38
-8.58044e-41
-2.70725e-40
4.21418e-41
-2.00837e-40
4.31314e-41
-2.35259e-41
5.31186e-43
-2.979e-43
3.68227e-44
-1.93562e-44
4.70596e-46
-1.93667e-44
-8.64286e-51
-2.9814e-43
-4.70858e-46
-2.35448e-41
-3.68434e-44
-2.01115e-40
-5.31636e-43
-2.93953e-40
-4.31678e-41
-7.21599e-38
-4.26362e-41
-9.31165e-41
4.32047e-41
9.31165e-41
8.63365e-41
7.21599e-38
4.32047e-41
2.93934e-40
-4.26362e-41
2.00993e-40
-4.31681e-41
-5.63422e-43
-4.82924e-43
3.6562e-44
-4.75228e-42
5.44554e-43
-3.12668e-40
4.41215e-41
-6.12975e-40
4.31057e-41
-5.17894e-53
-8.78096e-41
6.12975e-40
-8.78096e-41
3.12668e-40
4.31057e-41
4.75228e-42
4.41215e-41
4.82649e-43
5.44573e-43
7.28483e-45
3.73661e-44
4.31637e-46
4.77757e-46
6.16689e-48
2.11745e-47
-6.16689e-48
5.46154e-49
-4.31637e-46
2.11745e-47
-7.28484e-45
4.77757e-46
-4.82649e-43
3.73661e-44
-4.75228e-42
5.44573e-43
-3.12668e-40
4.41215e-41
-6.12982e-40
4.31062e-41
-4.83081e-43
-8.77723e-41
6.08215e-40
-8.72646e-41
-4.83081e-43
8.72646e-41
-6.12982e-40
8.77723e-41
-3.12668e-40
-4.31062e-41
-4.75228e-42
-4.41215e-41
-4.82649e-43
-5.44573e-43
-7.2851e-45
-3.73661e-44
-4.38073e-46
-4.77483e-46
-4.38327e-46
8.69172e-51
-7.29126e-45
4.77748e-46
-4.83074e-43
3.7387e-44
-4.75914e-42
5.4503e-43
-3.13143e-40
4.41584e-41
-6.17251e-40
4.36134e-41
-3.08391e-40
-4.41958e-41
3.08391e-40
-8.83178e-41
6.17251e-40
-4.41958e-41
3.13143e-40
4.36134e-41
4.75512e-42
4.41582e-41
4.72585e-43
-4.10683e-44
8.90437e-46
-1.35122e-43
1.41466e-44
-3.77032e-42
9.46888e-43
-7.29645e-42
9.20382e-43
-1.13348e-53
-1.88234e-42
7.29645e-42
-1.88234e-42
3.77032e-42
9.20382e-43
1.35122e-43
9.46888e-43
4.10117e-44
1.41471e-44
6.28568e-46
9.1312e-46
4.59076e-47
1.32128e-47
6.33978e-49
5.56512e-49
-6.33978e-49
1.57778e-50
-4.59076e-47
5.56512e-49
-6.28568e-46
1.32128e-47
-4.10118e-44
9.1312e-46
-1.35123e-43
1.41471e-44
-3.77037e-42
9.46888e-43
-7.29708e-42
9.20395e-43
-4.10577e-44
-1.88143e-42
7.1607e-42
-1.86818e-42
-4.10577e-44
1.86818e-42
-7.29708e-42
1.88143e-42
-3.77037e-42
-9.20395e-43
-1.35123e-43
-9.46888e-43
-4.10118e-44
-1.41471e-44
-6.28597e-46
-9.1312e-46
-4.65711e-47
-1.32049e-47
-4.65991e-47
2.40592e-52
-6.29231e-46
1.32125e-47
-4.1057e-44
9.13668e-46
-1.35705e-43
1.41597e-44
-3.81075e-42
9.47788e-43
-7.39115e-42
9.33628e-43
-3.67563e-42
-9.48702e-43
3.67563e-42
-1.8956e-42
7.39115e-42
-9.48702e-43
3.81076e-42
9.33629e-43
1.35965e-43
9.47782e-43
1.2315e-44
-8.86937e-46
8.81052e-47
-2.31236e-45
1.15807e-45
-3.58523e-44
7.95308e-44
-6.82402e-44
7.73913e-44
-2.95348e-55
-1.58172e-43
6.82402e-44
-1.58172e-43
3.58523e-44
7.73913e-44
2.31235e-45
7.95308e-44
8.85581e-46
1.15814e-45
1.52423e-47
9.02042e-47
1.08725e-48
1.26681e-48
1.64038e-50
5.6634e-50
-1.64038e-50
1.54598e-51
-1.08725e-48
5.6634e-50
-1.52423e-47
1.26681e-48
-8.85582e-46
9.02043e-47
-2.31237e-45
1.15814e-45
-3.58534e-44
7.95309e-44
-6.82554e-44
7.73926e-44
-8.86669e-46
-1.58082e-43
6.59125e-44
-1.57012e-43
-8.86669e-46
1.57012e-43
-6.82554e-44
1.58082e-43
-3.58534e-44
-7.73926e-44
-2.31237e-45
-7.95309e-44
-8.85582e-46
-1.15814e-45
-1.52431e-47
-9.02042e-47
-1.10439e-48
-1.26604e-48
-1.10509e-48
2.37726e-53
-1.52595e-47
1.26679e-48
-8.86652e-46
9.02601e-47
-2.32652e-45
1.15935e-45
-3.67238e-44
7.96198e-44
-6.96811e-44
7.84604e-44
-3.44114e-44
-7.97101e-44
3.44114e-44
-1.59242e-43
6.96811e-44
-7.97101e-44
3.67242e-44
7.84605e-44
2.33424e-45
7.96187e-44
9.85449e-46
-4.77291e-47
2.14495e-48
-9.71451e-47
2.89785e-47
-2.12587e-46
1.7784e-45
-3.20669e-46
1.72474e-45
-1.80434e-56
-3.53436e-45
3.20669e-46
-3.53436e-45
2.12587e-46
1.72474e-45
9.71443e-47
1.7784e-45
4.7642e-47
2.89803e-47
7.99223e-49
2.20059e-48
6.03349e-50
3.36747e-50
8.80941e-52
1.4538e-51
-8.80941e-52
4.24542e-53
-6.03349e-50
1.4538e-51
-7.99223e-49
3.36748e-50
-4.7642e-47
2.20059e-48
-9.71452e-47
2.89803e-47
-2.12648e-46
1.7784e-45
-3.21469e-46
1.72478e-45
-4.77024e-47
-3.53215e-45
2.22725e-46
-3.50534e-45
-4.77024e-47
3.50534e-45
-3.21469e-46
3.53215e-45
-2.12648e-46
-1.72478e-45
-9.71452e-47
-1.7784e-45
-4.7642e-47
-2.89803e-47
-7.99262e-49
-2.20059e-48
-6.12558e-50
-3.36535e-50
-6.12936e-50
6.30439e-55
-8.00143e-49
3.36741e-50
-4.77014e-47
2.20202e-48
-9.78841e-47
2.90125e-47
-2.5949e-46
1.78057e-45
-3.70911e-46
1.75155e-45
-1.62345e-46
-1.78277e-45
1.62345e-46
-3.5612e-45
3.70912e-46
-1.78277e-45
2.59541e-46
1.75155e-45
9.85273e-47
1.78053e-45
2.47387e-47
-1.05076e-48
1.1568e-49
-2.05374e-48
1.47537e-48
-8.18245e-50
9.33302e-47
1.88944e-48
9.06112e-47
-4.45424e-58
-1.85537e-46
-1.88944e-48
-1.85537e-46
8.18233e-50
9.06112e-47
2.05372e-48
9.33302e-47
1.04872e-48
1.47548e-48
1.90112e-50
1.18489e-49
1.39689e-51
1.75932e-51
2.17249e-53
7.64835e-53
-2.17249e-53
2.16372e-54
-1.39689e-51
7.64835e-53
-1.90113e-50
1.75932e-51
-1.04872e-48
1.18489e-49
-2.05374e-48
1.47548e-48
-8.32211e-50
9.33303e-47
1.87041e-48
9.06129e-47
-1.05012e-48
-1.85419e-46
-3.9622e-48
-1.8406e-46
-1.05012e-48
1.8406e-46
1.87041e-48
1.85419e-46
-8.32211e-50
-9.06129e-47
-2.05374e-48
-9.33303e-47
-1.04872e-48
-1.47548e-48
-1.90122e-50
-1.18489e-49
-1.41957e-51
-1.75823e-51
-1.42047e-51
3.15786e-56
-1.90339e-50
1.75928e-51
-1.0501e-48
1.18565e-49
-2.07136e-48
1.47716e-48
-1.11291e-48
9.3447e-47
8.66812e-49
9.19699e-47
9.40809e-49
-9.35657e-47
-9.40808e-49
-1.86898e-46
-8.66792e-49
-9.35657e-47
1.11421e-48
9.19698e-47
2.08767e-48
9.34451e-47
1.24986e-48
-4.12827e-50
9.33167e-51
-7.94563e-50
3.5559e-50
6.88775e-50
2.08821e-48
2.14627e-49
2.02228e-48
1.89267e-60
-4.149e-48
-2.14627e-49
-4.149e-48
-6.88775e-50
2.02228e-48
7.94539e-50
2.08821e-48
4.12015e-50
3.56831e-50
7.2659e-52
2.78201e-51
5.37228e-53
4.39315e-53
8.13265e-55
1.84544e-54
-8.13265e-55
5.47797e-56
-5.37228e-53
1.84544e-54
-7.2659e-52
4.39316e-53
-4.12016e-50
2.78201e-51
-7.94548e-50
3.56831e-50
6.88237e-50
2.08821e-48
2.13899e-49
2.02233e-48
-4.12553e-50
-4.14622e-48
-2.94808e-49
-4.11328e-48
-4.12553e-50
4.11328e-48
2.13899e-49
4.14622e-48
6.88237e-50
-2.02233e-48
-7.94548e-50
-2.08821e-48
-4.12016e-50
-3.56831e-50
-7.26625e-52
-2.78201e-51
-5.45711e-53
-4.39041e-53
-5.46042e-53
7.72511e-58
-7.27438e-52
4.39308e-53
-4.12545e-50
2.78383e-51
-8.01276e-50
3.57252e-50
2.83496e-50
2.09095e-48
1.75701e-49
2.05523e-48
1.07804e-49
-2.09374e-48
-1.07804e-49
-4.18199e-48
-1.757e-49
-2.09374e-48
-2.82894e-50
2.05522e-48
8.08574e-50
2.0909e-48
3.03881e-50
-7.42878e-52
5.70818e-50
-1.72087e-51
-1.96378e-51
1.6937e-51
8.05899e-50
5.01237e-51
7.82217e-50
7.09489e-58
-1.60378e-49
-5.01235e-51
-1.60377e-49
-1.69274e-51
7.82236e-50
1.69465e-51
8.07038e-50
8.83107e-52
1.3431e-51
1.64576e-53
1.05351e-52
1.17949e-54
1.62187e-54
1.86879e-56
6.69288e-56
-1.86879e-56
1.93618e-57
-1.17949e-54
6.69288e-56
-1.64576e-53
1.62187e-54
-8.83108e-52
1.05351e-52
-1.69467e-51
1.3431e-51
1.69156e-51
8.07038e-50
4.99587e-51
7.82252e-50
-8.84287e-52
-1.60272e-49
-6.72347e-51
-1.59033e-49
-8.84287e-52
1.59033e-49
4.99587e-51
1.60272e-49
1.69156e-51
-7.82252e-50
-1.69467e-51
-8.07038e-50
-8.83108e-52
-1.3431e-51
-1.64584e-53
-1.05351e-52
-1.19896e-54
-1.6209e-54
-1.19969e-54
2.64578e-59
-1.64771e-53
1.62184e-54
-8.84268e-52
1.05417e-52
-1.70995e-51
1.34465e-51
8.2493e-52
8.08076e-50
4.18551e-51
7.94629e-50
2.51958e-51
-8.0913e-50
-2.51958e-51
-1.61618e-49
-4.18548e-51
-8.0913e-50
-8.23543e-52
7.94628e-50
1.72719e-51
8.08055e-50
1.14359e-51
2.51336e-50
1.1547e-47
-2.52811e-51
-2.45248e-49
1.23193e-52
-7.10289e-51
1.60251e-52
1.57221e-51
4.22579e-56
-3.46679e-51
-1.58438e-52
-3.46452e-51
-5.41569e-53
1.68726e-51
5.22479e-53
1.74415e-51
2.72227e-53
3.07197e-53
4.95492e-55
2.32871e-54
3.49175e-56
3.74877e-56
5.41715e-58
1.49176e-57
-5.41715e-58
4.46175e-59
-3.49175e-56
1.49176e-57
-4.95492e-55
3.74877e-56
-2.72227e-53
2.32871e-54
-5.22485e-53
3.07197e-53
5.4122e-53
1.74415e-51
1.57942e-52
1.68729e-51
-2.72576e-53
-3.46216e-51
-2.11182e-52
-3.43373e-51
-2.72576e-53
3.43373e-51
1.57942e-52
3.46216e-51
5.4122e-53
-1.68729e-51
-5.22485e-53
-1.74415e-51
-2.72227e-53
-3.07197e-53
-4.95513e-55
-2.32871e-54
-3.54811e-56
-3.74654e-56
-3.55017e-56
5.88061e-61
-4.96055e-55
3.74871e-56
-2.72571e-53
2.33018e-54
-5.2709e-53
3.07557e-53
2.73953e-53
1.74644e-51
1.32952e-52
1.71568e-51
7.96432e-53
-1.74877e-51
-7.96432e-53
-3.49295e-51
-1.32951e-52
-1.74877e-51
-2.73507e-53
1.71568e-51
5.32728e-53
1.74639e-51
2.63215e-53
3.74207e-48
-2.08389e-47
1.1235e-49
-5.09762e-49
2.48071e-51
-1.48035e-50
6.38753e-53
-1.3303e-52
9.87758e-55
-1.28477e-52
-3.20159e-54
-1.24474e-52
-1.10429e-54
6.06296e-53
1.05754e-54
6.26324e-53
5.52135e-55
1.07951e-54
1.04619e-56
8.03974e-56
7.11895e-58
1.268e-57
1.14107e-59
4.8885e-59
-1.14107e-59
1.43186e-60
-7.11895e-58
4.8885e-59
-1.04619e-56
1.268e-57
-5.52135e-55
8.03974e-56
-1.05755e-54
1.07951e-54
1.10385e-54
6.26324e-53
3.21085e-54
6.06318e-53
-5.52847e-55
-1.24344e-52
-4.28933e-54
-1.23343e-52
-5.52847e-55
1.23343e-52
3.21085e-54
1.24344e-52
1.10385e-54
-6.06318e-53
-1.05755e-54
-6.26324e-53
-5.52135e-55
-1.07951e-54
-1.04623e-56
-8.03974e-56
-7.23749e-58
-1.26728e-57
-7.24166e-58
1.81326e-62
-1.04737e-56
1.26798e-57
-5.52835e-55
8.04455e-56
-1.0673e-54
1.08073e-54
5.62194e-55
6.27115e-53
2.70616e-54
6.16308e-53
1.61973e-54
-6.2792e-53
-1.61973e-54
-1.25426e-52
-2.70614e-54
-6.2792e-53
-5.61256e-55
6.16308e-53
1.07958e-54
6.27098e-53
9.28147e-55
7.20605e-41
-5.91104e-39
5.09203e-41
-1.11547e-39
2.77127e-42
-1.0607e-39
1.01907e-42
-1.47055e-41
1.73014e-44
-1.02006e-42
1.3011e-45
-1.45213e-44
2.06818e-47
-6.51543e-46
9.16917e-49
-9.30363e-48
1.39259e-50
-3.05216e-49
4.36306e-52
-4.26529e-51
6.24651e-54
-1.07625e-52
2.81737e-55
1.15565e-54
5.87776e-56
-8.83602e-55
-9.29656e-56
-1.74073e-54
-3.83669e-56
8.55047e-55
3.69643e-56
8.86641e-55
1.93603e-56
1.77102e-56
3.97823e-58
1.29971e-57
2.66076e-59
2.33446e-59
4.76863e-61
8.90205e-61
1.6971e-62
1.45974e-62
2.74316e-64
3.73222e-64
6.58992e-66
5.56301e-66
1.9208e-67
1.04509e-67
6.5905e-66
-1.0453e-67
2.74303e-64
-5.56437e-66
1.69668e-62
-3.73323e-64
4.7625e-61
-1.46024e-62
2.65446e-59
-8.90534e-61
3.92683e-58
-2.33556e-59
1.89166e-56
-1.30031e-57
9.6058e-57
-1.77123e-56
-2.19927e-54
-8.86372e-55
-1.06329e-52
-7.73132e-55
-7.92437e-51
7.72643e-54
-3.11013e-49
3.70604e-52
-2.23109e-47
2.38421e-50
-6.79303e-46
1.06079e-48
-4.76905e-44
6.29169e-47
-1.06187e-42
1.89046e-45
-7.48086e-41
3.15909e-44
-1.07802e-39
-1.78913e-41
-7.79918e-38
-3.64175e-39
-7.69495e-38
-5.43566e-37
7.70615e-38
-2.41273e-37
-5.45591e-37
7.59416e-38
1.38362e-38
-8.10007e-39
8.11828e-39
-5.81841e-39
1.38564e-40
-1.08118e-39
1.54538e-41
-1.46846e-41
2.57515e-43
-1.00747e-42
1.58734e-44
-1.43123e-44
2.58965e-46
-6.42511e-46
1.08054e-47
-9.16394e-48
1.70438e-49
-3.00828e-49
5.28957e-51
-4.19831e-51
7.9741e-53
-1.06895e-52
1.94512e-54
-1.38942e-54
2.8374e-56
-4.42571e-56
-5.33106e-58
-3.06069e-56
-4.39735e-58
1.48509e-56
4.30198e-58
1.53971e-56
2.25631e-58
3.01256e-58
4.77631e-60
2.12112e-59
3.08756e-61
3.73295e-61
5.65222e-63
1.35555e-62
1.93767e-64
2.17384e-64
3.16731e-66
5.27077e-66
7.31864e-68
7.65768e-68
2.13634e-69
1.36179e-69
7.33818e-68
-1.36169e-69
3.18546e-66
-7.65559e-68
1.95486e-64
-5.26809e-66
5.7927e-63
-2.17066e-64
3.20954e-61
-1.3524e-62
5.64247e-60
-3.70389e-61
2.94999e-58
-2.09637e-59
4.63818e-57
-2.82304e-58
3.12956e-55
-1.39532e-56
1.59061e-53
7.83446e-56
1.11332e-51
6.50426e-54
4.60147e-50
3.51487e-52
3.06599e-48
2.25452e-50
9.93193e-47
1.00911e-48
6.40793e-45
5.95468e-47
1.53244e-43
1.83259e-45
9.81299e-42
3.72532e-44
1.53247e-40
-1.52981e-41
9.94261e-39
-3.16474e-39
1.71419e-38
-4.75369e-37
5.00037e-39
-2.22052e-34
-4.77386e-37
-2.28788e-39
3.66888e-36
-1.91995e-36
1.61528e-38
-8.40295e-39
1.16376e-38
9.83484e-40
1.37532e-39
1.41568e-41
1.95051e-41
1.00648e-42
1.26315e-42
1.43238e-44
1.84826e-44
6.43242e-46
8.05355e-46
9.17418e-48
1.16971e-47
3.01102e-49
3.76962e-49
4.20187e-51
5.3206e-51
1.06986e-52
1.33892e-52
1.4363e-54
1.80951e-54
2.9263e-56
3.68037e-56
1.82669e-59
4.64097e-58
1.81398e-58
1.42386e-59
1.81739e-58
3.40171e-60
3.67331e-60
6.98835e-62
2.48822e-61
4.24518e-63
4.47906e-63
7.60773e-65
1.56276e-64
2.46924e-66
2.53611e-66
3.94562e-68
5.90576e-68
8.62009e-70
8.58826e-70
6.48664e-71
1.46572e-71
5.04968e-69
-1.50539e-71
4.47842e-67
-9.02463e-70
4.00083e-65
-6.3643e-68
3.29355e-63
-2.98085e-66
2.68684e-61
-1.97962e-64
1.99186e-59
-8.0091e-63
1.47344e-57
-5.46895e-61
9.58503e-56
-2.55863e-59
6.44621e-54
-1.86479e-57
3.60036e-52
-1.06477e-55
2.21709e-50
-7.49926e-54
1.03876e-48
-4.00357e-52
5.91173e-47
-2.62071e-50
2.25023e-45
-1.14977e-48
1.1978e-43
-6.93499e-47
3.52001e-42
-2.00074e-45
1.78247e-40
-2.47608e-44
3.66315e-39
2.2181e-41
1.76893e-37
4.44676e-39
1.79976e-37
6.6226e-37
3.53152e-36
2.47468e-34
6.6424e-37
-1.42259e-37
1.51609e-38
-6.04563e-39
6.7763e-39
-3.73076e-39
1.22098e-40
1.0259e-39
1.41683e-41
1.45054e-41
2.40387e-43
1.01867e-42
1.50542e-44
1.45107e-44
2.47723e-46
6.51258e-46
1.04219e-47
9.29976e-48
1.65212e-49
3.05103e-49
5.15325e-51
4.26202e-51
7.79382e-53
1.08477e-52
1.90605e-54
1.45701e-54
2.72397e-56
2.98611e-56
5.41081e-58
3.75196e-58
7.16877e-60
9.00211e-60
1.88071e-61
2.73454e-60
3.73559e-62
5.38693e-62
7.81837e-64
3.41633e-63
4.52632e-65
6.03198e-65
8.22372e-67
1.98959e-66
2.55146e-68
3.16018e-68
4.0908e-70
6.94936e-70
8.53167e-72
9.84623e-72
-4.49954e-73
1.55594e-73
-7.16513e-71
-5.27005e-73
-7.28661e-69
-5.07654e-71
-7.85646e-67
-4.98431e-69
-6.47445e-65
-4.48419e-67
-6.33053e-63
-4.08937e-65
-4.30252e-61
-3.36441e-63
-3.91836e-59
-2.80726e-61
-2.1923e-57
-2.05312e-59
-1.89101e-55
-1.56285e-57
-8.59563e-54
-9.91833e-56
-7.11688e-52
-6.92492e-54
-2.56786e-50
-3.7303e-52
-2.0687e-48
-2.41026e-50
-5.71641e-47
-1.07024e-48
-4.55662e-45
-6.35149e-47
-9.10751e-44
-1.86536e-45
-7.35997e-42
-2.1534e-44
-9.42383e-41
2.03675e-41
-7.91707e-39
4.0875e-39
-4.87605e-40
6.0716e-37
2.2628e-38
3.54406e-37
6.09173e-37
1.50951e-38
7.45501e-40
-4.86687e-39
-6.31205e-40
-5.42125e-41
-5.62775e-42
1.04445e-41
3.63497e-43
1.81917e-43
8.54374e-45
1.26709e-44
8.82612e-46
2.0372e-46
1.4928e-47
8.88479e-48
7.20892e-49
1.3849e-49
1.12505e-50
4.4036e-51
3.6673e-52
6.58313e-53
5.37961e-54
1.62682e-54
1.31821e-55
2.30604e-56
1.81328e-57
4.60558e-58
3.52236e-59
6.06826e-60
4.50152e-61
1.2929e-61
8.02558e-63
3.01194e-62
5.32596e-64
6.05944e-64
1.04613e-65
3.64642e-65
5.35572e-67
6.53575e-67
9.49383e-69
2.05694e-68
2.75735e-70
3.28071e-70
4.31738e-72
6.88764e-72
-1.68345e-74
9.6858e-74
-1.1367e-71
3.22504e-75
-1.24995e-69
2.13509e-73
-1.2035e-67
2.39548e-71
-1.19304e-65
2.63986e-69
-9.84841e-64
2.54238e-67
-8.9233e-62
2.52503e-65
-6.26682e-60
2.08104e-63
-5.25596e-58
1.89017e-61
-3.10244e-56
1.32289e-59
-2.43802e-54
1.11366e-57
-1.18839e-52
6.5361e-56
-8.85948e-51
5.16619e-54
-3.47722e-49
2.49595e-52
-2.4933e-47
1.87733e-50
-7.59135e-46
7.2698e-49
-5.32687e-44
5.28579e-47
-1.18596e-42
1.58309e-45
-8.35062e-41
1.14699e-43
-1.20299e-39
2.79455e-42
-8.69881e-38
2.35282e-40
-8.58295e-38
9.36921e-39
8.5942e-38
6.80172e-37
9.39542e-39
8.47095e-38
7.79373e-42
-5.67941e-40
-7.35707e-42
-5.84198e-42
-8.65585e-44
2.82722e-43
2.97398e-45
6.23669e-45
9.09179e-47
7.11633e-46
1.01532e-47
1.16677e-47
1.89376e-49
5.82404e-49
9.00051e-51
8.94007e-51
1.50906e-52
2.96639e-52
4.79626e-54
4.31105e-54
7.44137e-56
1.06749e-55
1.77851e-57
1.4608e-57
2.55669e-59
2.85587e-59
4.85812e-61
3.63989e-61
6.42648e-63
6.16768e-63
1.08909e-64
4.2828e-64
5.66185e-66
8.13998e-66
1.10237e-67
4.30727e-67
5.20901e-69
7.54685e-69
9.26498e-71
2.22027e-70
2.54749e-72
3.4627e-72
3.96969e-74
6.83299e-74
1.78451e-75
9.63067e-76
1.18936e-73
3.77694e-75
1.30534e-71
4.65737e-73
1.28394e-69
5.20805e-71
1.26333e-67
5.7244e-69
1.07051e-65
5.50571e-67
9.56155e-64
5.458e-65
6.9254e-62
4.49787e-63
5.68031e-60
4.07812e-61
3.47226e-58
2.85621e-59
2.64409e-56
2.39971e-57
1.33876e-54
1.41022e-55
9.5662e-53
1.11208e-53
3.9038e-51
5.38246e-52
2.6462e-49
4.03764e-50
8.35142e-48
1.56706e-48
5.43323e-46
1.13583e-46
1.23848e-44
3.40681e-45
7.82853e-43
2.45219e-43
1.11055e-41
5.79198e-42
6.73495e-40
4.68727e-40
6.63346e-40
1.57739e-38
-6.62769e-40
1.149e-36
1.57813e-38
-6.55499e-40
5.089e-43
-6.55514e-42
-5.12022e-43
-8.19548e-44
-6.13572e-45
2.18615e-45
-1.48612e-46
6.50639e-47
-1.55376e-49
8.29093e-48
2.62571e-49
1.50441e-49
5.39893e-51
7.41457e-51
3.01766e-52
1.22392e-52
5.04822e-54
3.95928e-54
1.66425e-55
6.08528e-56
2.52166e-57
1.46808e-57
5.98467e-59
2.09822e-59
8.32376e-61
4.00645e-61
1.53483e-62
5.28084e-63
1.95354e-64
8.61537e-65
3.00726e-66
4.56984e-66
8.13019e-68
8.63213e-68
1.4127e-69
4.19179e-69
5.43157e-71
7.37853e-71
9.31043e-73
2.05146e-72
2.35919e-74
3.18513e-74
1.64036e-75
5.96203e-76
1.58804e-73
1.65299e-77
1.77738e-71
1.10828e-75
1.95328e-69
1.37191e-73
1.88138e-67
1.53398e-71
1.8637e-65
1.68685e-69
1.53938e-63
1.62205e-67
1.39339e-61
1.60903e-65
9.79408e-60
1.32549e-63
8.20332e-58
1.2028e-61
4.84755e-56
8.4197e-60
3.80285e-54
7.08151e-58
1.8562e-52
4.15874e-56
1.38081e-50
3.28393e-54
5.42811e-49
1.58869e-52
3.8818e-47
1.19555e-50
1.18396e-45
4.70841e-49
8.28075e-44
3.61396e-47
1.84681e-42
1.71427e-45
1.29514e-40
2.46767e-43
1.86814e-39
3.88092e-41
1.34374e-37
6.76156e-39
1.32637e-37
9.44328e-37
-1.32623e-37
2.41567e-36
9.44148e-37
-1.30789e-37
5.92008e-45
-4.16305e-43
-5.97418e-45
-4.93626e-45
-8.27312e-47
-1.21885e-46
-2.44098e-48
-3.43919e-49
-1.42752e-50
2.10927e-49
2.67723e-51
4.18402e-51
6.19661e-53
2.43406e-52
3.54164e-54
4.00731e-54
6.3135e-56
1.34473e-55
2.04722e-57
2.02083e-57
3.24847e-59
4.84223e-59
7.54224e-61
6.70649e-61