/*--------------------------------*- C++ -*----------------------------------*\
| =========                 |                                                 |
| \\      /  F ield         | OpenFOAM: The Open Source CFD Toolbox           |
|  \\    /   O peration     | Version:  2.4.0                                 |
|   \\  /    A nd           | Web:      www.OpenFOAM.org                      |
|    \\/     M anipulation  |                                                 |
\*---------------------------------------------------------------------------*/
FoamFile
{
    version     2.0;
    format      ascii;
    class       volVectorField;
    location    "0.05";
    object      U;
}
// * * * * * * * * * * * * * * * * * * * * * * * * * * * * * * * * * * * * * //

dimensions      [0 1 -1 0 0 0 0];

internalField   nonuniform List<vector> 
7700
(
(1.15846e-38 1.96372e-39 0)
(8.25794e-37 2.83843e-38 0)
(6.27407e-36 2.07325e-36 0)
(5.74057e-34 2.02036e-36 0)
(5.68598e-34 -4.12401e-36 0)
(-5.68597e-34 -4.12398e-36 0)
(-5.74045e-34 2.02237e-36 0)
(-5.43726e-36 2.10362e-36 0)
(6.27483e-36 2.13005e-36 0)
(5.80331e-34 4.09761e-36 0)
(1.14349e-33 -2.07322e-36 0)
(7.11162e-36 -6.14437e-36 0)
(-5.61487e-34 2.02036e-36 0)
(5.69436e-34 4.09361e-36 0)
(5.74068e-34 -2.02237e-36 0)
(6.27483e-36 -2.07328e-36 0)
(8.2581e-37 -2.83866e-38 0)
(1.10008e-38 -1.98226e-39 0)
(7.51132e-40 -2.79905e-41 0)
(1.05905e-41 -1.26278e-42 0)
(4.76438e-43 -1.79235e-44 0)
(6.75707e-45 -5.90684e-46 0)
(2.22359e-46 -8.21266e-48 0)
(3.16799e-48 -2.0701e-49 0)
(3.169e-48 2.07068e-49 0)
(2.22437e-46 8.21541e-48 0)
(6.76008e-45 5.90891e-46 0)
(4.76658e-43 1.79315e-44 0)
(1.0597e-41 1.26336e-42 0)
(7.51602e-40 2.80079e-41 0)
(1.1011e-38 1.98351e-39 0)
(8.26551e-37 2.84133e-38 0)
(6.28508e-36 2.07523e-36 0)
(5.74883e-34 2.04878e-36 0)
(5.74883e-34 -2.04878e-36 0)
(6.28508e-36 -2.07523e-36 0)
(8.26551e-37 -2.84133e-38 0)
(1.1011e-38 -1.98351e-39 0)
(7.51602e-40 -2.80079e-41 0)
(1.0597e-41 -1.26336e-42 0)
(4.76658e-43 -1.79315e-44 0)
(6.76008e-45 -5.90892e-46 0)
(2.22423e-46 -8.27029e-48 0)
(2.40839e-48 -9.14459e-49 0)
(8.01092e-50 -3.73057e-47 0)
(6.98492e-49 -6.0633e-49 0)
(2.812e-40 -9.63997e-40 0)
(1.69304e-38 -1.41971e-38 0)
(1.51015e-37 -1.03808e-36 0)
(9.78624e-36 -1.01162e-36 0)
(9.6519e-36 2.0649e-36 0)
(-9.65188e-36 2.06488e-36 0)
(-9.78595e-36 -1.01262e-36 0)
(-1.33814e-37 -1.05327e-36 0)
(1.51032e-37 -1.06649e-36 0)
(9.93727e-36 -2.05169e-36 0)
(1.94553e-35 1.03807e-36 0)
(1.68233e-37 3.07652e-36 0)
(-9.48367e-36 -1.01162e-36 0)
(9.66912e-36 -2.0497e-36 0)
(9.78653e-36 1.01262e-36 0)
(1.51032e-37 1.03809e-36 0)
(1.69308e-38 1.41983e-38 0)
(2.70513e-40 9.87372e-40 0)
(1.69828e-41 1.39196e-41 0)
(2.71843e-43 6.26722e-43 0)
(1.15632e-44 8.88209e-45 0)
(1.80963e-46 2.92431e-46 0)
(5.71766e-48 4.06045e-48 0)
(8.81775e-50 1.02301e-49 0)
(8.82067e-50 -1.0233e-49 0)
(5.71976e-48 -4.06181e-48 0)
(1.81047e-46 -2.92534e-46 0)
(1.15688e-44 -8.88605e-45 0)
(2.72018e-43 -6.27011e-43 0)
(1.69942e-41 -1.39282e-41 0)
(2.70773e-40 -9.8799e-40 0)
(1.69475e-38 -1.42116e-38 0)
(1.51286e-37 -1.03907e-36 0)
(9.80319e-36 -1.02583e-36 0)
(9.80319e-36 1.02583e-36 0)
(1.51286e-37 1.03907e-36 0)
(1.69475e-38 1.42116e-38 0)
(2.70773e-40 9.8799e-40 0)
(1.69942e-41 1.39282e-41 0)
(2.72018e-43 6.27011e-43 0)
(1.15688e-44 8.88604e-45 0)
(1.81006e-46 2.92488e-46 0)
(5.1935e-48 1.40972e-48 0)
(-2.77372e-47 -3.27652e-47 0)
(5.27479e-50 -1.82222e-45 0)
(2.84224e-47 -2.81031e-47 0)
(2.51646e-41 -2.17285e-41 0)
(1.43072e-39 -3.47513e-40 0)
(3.33884e-39 -2.08504e-38 0)
(1.16231e-37 -2.0199e-38 0)
(1.14301e-37 4.14195e-38 0)
(-1.143e-37 4.14192e-38 0)
(-1.16206e-37 -2.02217e-38 0)
(-1.88515e-39 -2.12202e-38 0)
(3.34067e-39 -2.15458e-38 0)
(1.19571e-37 -4.10944e-38 0)
(2.31986e-37 2.085e-38 0)
(4.7943e-39 6.16185e-38 0)
(-1.09507e-37 -2.0199e-38 0)
(1.15757e-37 -4.10493e-38 0)
(1.16255e-37 2.02217e-38 0)
(3.34067e-39 2.08507e-38 0)
(1.43074e-39 3.47541e-40 0)
(2.29564e-41 2.23443e-41 0)
(1.80128e-42 3.5815e-43 0)
(2.79153e-44 1.52421e-44 0)
(1.26893e-45 2.3854e-46 0)
(1.90348e-47 7.53756e-48 0)
(6.0686e-49 1.13438e-49 0)
(8.93159e-51 2.77034e-51 0)
(8.93436e-51 -2.77115e-51 0)
(6.07068e-49 -1.13477e-49 0)
(1.90433e-47 -7.54033e-48 0)
(1.26953e-45 -2.3865e-46 0)
(2.79337e-44 -1.52495e-44 0)
(1.80253e-42 -3.58381e-43 0)
(2.2983e-41 -2.23593e-41 0)
(1.43251e-39 -3.47884e-40 0)
(3.36182e-39 -2.08727e-38 0)
(1.17663e-37 -2.05468e-38 0)
(1.17663e-37 2.05468e-38 0)
(3.36182e-39 2.08727e-38 0)
(1.43251e-39 3.47884e-40 0)
(2.2983e-41 2.23593e-41 0)
(1.80253e-42 3.58381e-43 0)
(2.79337e-44 1.52495e-44 0)
(1.26949e-45 2.38585e-46 0)
(1.70383e-47 5.98192e-48 0)
(-2.42259e-47 -8.96069e-47 0)
(-1.37657e-45 -1.08603e-45 0)
(2.38612e-48 -5.89275e-44 0)
(1.4039e-45 -9.25149e-46 0)
(6.10244e-43 -2.31901e-42 0)
(3.08122e-41 -3.01853e-41 0)
(5.07402e-41 -1.86762e-39 0)
(1.08259e-39 -1.8119e-39 0)
(1.06215e-39 3.71212e-39 0)
(-1.0621e-39 3.71208e-39 0)
(-1.08199e-39 -1.81431e-39 0)
(-1.93702e-41 -1.90019e-39 0)
(5.07836e-41 -1.92803e-39 0)
(1.13337e-39 -3.68431e-39 0)
(2.1761e-39 1.86758e-39 0)
(8.21522e-41 5.52401e-39 0)
(-9.79992e-40 -1.8119e-39 0)
(1.09356e-39 -3.67951e-39 0)
(1.08319e-39 1.81431e-39 0)
(5.07836e-41 1.86766e-39 0)
(3.08127e-41 3.0189e-41 0)
(5.57424e-43 2.37967e-42 0)
(4.26472e-44 3.68847e-44 0)
(7.22366e-46 1.67659e-45 0)
(3.17298e-47 2.51484e-47 0)
(5.10217e-49 8.01749e-49 0)
(1.5755e-50 1.15196e-50 0)
(2.44821e-52 2.7586e-52 0)
(2.44898e-52 -2.75934e-52 0)
(1.57605e-50 -1.15234e-50 0)
(5.10451e-49 -8.02025e-49 0)
(3.17453e-47 -2.51597e-47 0)
(7.22861e-46 -1.67738e-45 0)
(4.26784e-44 -3.6909e-44 0)
(5.58114e-43 -2.38132e-42 0)
(3.08546e-41 -3.02242e-41 0)
(5.12983e-41 -1.87e-39 0)
(1.11344e-39 -1.84212e-39 0)
(1.11344e-39 1.84212e-39 0)
(5.12983e-41 1.87e-39 0)
(3.08546e-41 3.02242e-41 0)
(5.58114e-43 2.38132e-42 0)
(4.26784e-44 3.6909e-44 0)
(7.22811e-46 1.67733e-45 0)
(3.0567e-47 2.22076e-47 0)
(-6.73228e-47 -6.71615e-47 0)
(-8.20534e-46 -4.10289e-45 0)
(-4.4518e-44 -4.79783e-44 0)
(7.33511e-47 -2.77069e-42 0)
(4.5344e-44 -4.06707e-44 0)
(3.1934e-44 -7.14383e-44 0)
(1.65778e-42 -7.35707e-43 0)
(1.76699e-42 -4.04668e-41 0)
(4.64515e-42 -3.91061e-41 0)
(4.50893e-42 8.03648e-41 0)
(-4.50649e-42 8.03639e-41 0)
(-4.61368e-42 -3.91634e-41 0)
(-8.03554e-44 -4.12578e-41 0)
(1.76938e-42 -4.19375e-41 0)
(6.41452e-42 -7.96862e-41 0)
(1.08407e-41 4.04654e-41 0)
(3.45592e-42 1.19471e-40 0)
(-1.05293e-42 -3.91061e-41 0)
(6.19788e-42 -7.95725e-41 0)
(4.67664e-42 3.91635e-41 0)
(1.76938e-42 4.04673e-41 0)
(1.65753e-42 7.35128e-43 0)
(2.9094e-44 5.63573e-44 0)
(2.36554e-45 9.54657e-46 0)
(3.87835e-47 4.19283e-47 0)
(1.71697e-48 6.74182e-49 0)
(2.66833e-50 2.0817e-50 0)
(8.09323e-52 3.16011e-52 0)
(1.21305e-53 7.35526e-54 0)
(1.21341e-53 -7.35727e-54 0)
(8.0959e-52 -3.16115e-52 0)
(2.66949e-50 -2.08244e-50 0)
(1.71777e-48 -6.7449e-49 0)
(3.88094e-47 -4.19488e-47 0)
(2.36723e-45 -9.55311e-46 0)
(2.91311e-44 -5.63986e-44 0)
(1.65986e-42 -7.36041e-43 0)
(1.79611e-42 -4.05227e-41 0)
(6.305e-42 -3.98422e-41 0)
(6.305e-42 3.98422e-41 0)
(1.79611e-42 4.05227e-41 0)
(1.65986e-42 7.36041e-43 0)
(2.91311e-44 5.63986e-44 0)
(2.36719e-45 9.55272e-46 0)
(3.65768e-47 4.06431e-47 0)
(-4.96718e-47 -8.04102e-47 0)
(-3.10214e-45 -1.82452e-45 0)
(-3.6252e-44 -1.07287e-43 0)
(-2.09333e-42 -1.25132e-42 0)
(3.13142e-45 -7.02002e-41 0)
(2.12833e-42 -1.06095e-42 0)
(-2.47892e-44 -4.40345e-43 0)
(4.86786e-44 -6.57113e-44 0)
(3.64342e-44 -2.21193e-42 0)
(-4.06003e-44 -2.12009e-42 0)
(-4.10778e-44 4.35184e-42 0)
(4.11416e-44 4.35182e-42 0)
(4.16896e-44 -2.12287e-42 0)
(1.18995e-45 -2.23213e-42 0)
(3.59883e-44 -2.26752e-42 0)
(-4.95312e-45 -4.31653e-42 0)
(-4.49043e-44 2.19048e-42 0)
(7.31089e-44 6.47157e-42 0)
(1.14195e-43 -2.1197e-42 0)
(-3.90812e-45 -4.31022e-42 0)
(-4.01923e-44 2.12288e-42 0)
(3.59883e-44 2.19058e-42 0)
(3.64292e-44 3.84723e-44 0)
(6.93418e-46 3.12776e-45 0)
(5.47602e-47 5.12781e-47 0)
(9.56533e-49 2.26975e-48 0)
(4.0976e-50 3.52724e-50 0)
(6.6879e-52 1.06977e-51 0)
(1.96535e-53 1.56757e-53 0)
(3.05407e-55 3.5314e-55 0)
(3.05497e-55 -3.53229e-55 0)
(1.966e-53 -1.56805e-53 0)
(6.69082e-52 -1.07013e-51 0)
(4.09953e-50 -3.52877e-50 0)
(9.57183e-49 -2.27081e-48 0)
(5.48005e-47 -5.13123e-47 0)
(6.94333e-46 -3.13e-45 0)
(3.6483e-44 -3.85213e-44 0)
(3.66269e-44 -2.19366e-42 0)
(-4.4585e-45 -2.15822e-42 0)
(-4.4585e-45 2.15822e-42 0)
(3.66269e-44 2.19366e-42 0)
(3.6483e-44 3.85213e-44 0)
(6.94304e-46 3.12997e-45 0)
(5.38129e-47 4.9704e-47 0)
(-6.03747e-47 -4.97655e-47 0)
(-1.37977e-45 -3.39484e-45 0)
(-8.11312e-44 -7.40437e-44 0)
(-9.45597e-43 -4.64418e-42 0)
(-5.30443e-41 -5.27805e-41 0)
(6.61153e-44 -3.21884e-39 0)
(5.38186e-41 -4.46753e-41 0)
(-6.75604e-43 -1.93673e-41 0)
(3.17654e-43 -7.66666e-43 0)
(2.17322e-44 -5.75817e-43 0)
(1.23153e-44 -5.64034e-44 0)
(-3.52021e-45 9.4891e-44 0)
(3.84203e-45 9.56556e-44 0)
(3.88504e-45 -4.65673e-44 0)
(9.05485e-47 -4.91762e-44 0)
(1.37001e-45 -5.00223e-44 0)
(-2.48603e-45 -9.48256e-44 0)
(-6.2141e-45 4.81852e-44 0)
(2.82834e-45 1.42163e-43 0)
(6.64483e-45 -4.6493e-44 0)
(-2.35595e-45 -9.46795e-44 0)
(-3.82741e-45 4.65668e-44 0)
(1.37001e-45 4.81878e-44 0)
(1.43191e-45 9.17342e-46 0)
(2.64897e-47 7.24119e-47 0)
(2.1064e-48 1.2648e-48 0)
(3.58075e-50 5.41721e-50 0)
(1.50726e-51 8.84137e-52 0)
(2.39367e-53 2.59803e-53 0)
(6.8145e-55 3.94949e-55 0)
(1.02839e-56 8.63797e-57 0)
(1.02868e-56 -8.64014e-57 0)
(6.81662e-55 -3.9507e-55 0)
(2.39465e-53 -2.59889e-53 0)
(1.50793e-51 -8.84524e-52 0)
(3.58308e-50 -5.41977e-50 0)
(2.10788e-48 -1.26566e-48 0)
(2.6524e-47 -7.24652e-47 0)
(1.43398e-45 -9.18553e-46 0)
(1.39439e-45 -4.82589e-44 0)
(-2.42206e-45 -4.74116e-44 0)
(-2.42206e-45 4.74116e-44 0)
(1.39439e-45 4.82589e-44 0)
(1.43397e-45 9.18541e-46 0)
(2.53073e-47 7.19791e-47 0)
(-3.72567e-47 -3.10569e-47 0)
(-2.56802e-45 -1.02197e-45 0)
(-5.6e-44 -6.45697e-44 0)
(-3.51218e-42 -1.40423e-42 0)
(-3.98857e-41 -8.53038e-41 0)
(-2.43231e-39 -1.00852e-39 0)
(2.47325e-42 -5.9265e-38 0)
(2.46335e-39 -8.60562e-40 0)
(-2.93186e-41 -3.80014e-40 0)
(1.45806e-41 -2.95156e-41 0)
(5.79309e-43 -2.47681e-41 0)
(3.98598e-43 -4.3317e-43 0)
(7.39997e-45 -3.13137e-44 0)
(6.77572e-46 3.19096e-45 0)
(1.0014e-46 -1.85853e-45 0)
(2.65679e-48 -1.93327e-45 0)
(2.90947e-47 -1.9652e-45 0)
(-6.01615e-47 -3.73102e-45 0)
(-1.46181e-46 1.89499e-45 0)
(6.03441e-47 5.59365e-45 0)
(1.48534e-46 -1.83036e-45 0)
(-5.68851e-47 -3.7254e-45 0)
(-8.86008e-47 1.8332e-45 0)
(2.90876e-47 1.89508e-45 0)
(3.06569e-47 3.50546e-47 0)
(6.01377e-49 2.78587e-48 0)
(4.625e-50 4.73553e-50 0)
(8.22918e-52 1.993e-51 0)
(3.34546e-53 3.16494e-53 0)
(5.4942e-55 9.00965e-55 0)
(1.51223e-56 1.33127e-56 0)
(2.33229e-58 2.79685e-58 0)
(2.33292e-58 -2.7975e-58 0)
(1.5127e-56 -1.33165e-56 0)
(5.49644e-55 -9.01244e-55 0)
(3.34695e-53 -3.16625e-53 0)
(8.23452e-52 -1.99389e-51 0)
(4.62829e-50 -4.7386e-50 0)
(6.02167e-49 -2.78784e-48 0)
(3.07023e-47 -3.50999e-47 0)
(2.96426e-47 -1.89782e-45 0)
(-5.85469e-47 -1.86546e-45 0)
(-5.85471e-47 1.86546e-45 0)
(2.96338e-47 1.89782e-45 0)
(3.03344e-47 3.46715e-47 0)
(-2.38598e-47 -1.46552e-47 0)
(-7.73402e-46 -1.22323e-45 0)
(-4.88624e-44 -3.76015e-44 0)
(-1.06241e-42 -2.54344e-42 0)
(-6.45296e-41 -5.39238e-41 0)
(-7.61784e-40 -3.57907e-39 0)
(-4.47698e-38 -4.1966e-38 0)
(1.96972e-41 -2.77159e-36 0)
(4.51591e-38 -3.60242e-38 0)
(-5.38012e-40 -1.66587e-38 0)
(3.17901e-40 -6.19205e-40 0)
(2.29913e-41 -4.30068e-40 0)
(1.87085e-41 -7.70575e-42 0)
(3.25703e-43 -5.95778e-43 0)
(2.6517e-44 -9.95565e-45 0)
(4.35425e-46 -4.82012e-46 0)
(1.92257e-47 -4.85261e-47 0)
(1.19315e-48 -4.23892e-47 0)
(-1.90842e-48 -7.98089e-47 0)
(-4.63112e-48 4.05761e-47 0)
(1.86022e-48 1.19645e-46 0)
(4.64098e-48 -3.91048e-47 0)
(-1.8158e-48 -7.96821e-47 0)
(-2.79456e-48 3.91671e-47 0)
(8.9669e-49 4.05784e-47 0)
(9.45448e-49 7.95891e-49 0)
(1.81295e-50 6.11725e-50 0)
(1.36982e-51 1.08836e-51 0)
(2.38572e-53 4.42383e-53 0)
(9.39649e-55 7.26493e-55 0)
(1.50973e-56 1.99947e-56 0)
(3.99206e-58 3.02137e-58 0)
(6.00745e-60 6.14465e-60 0)
(6.00896e-60 -6.14605e-60 0)
(3.99321e-58 -3.02222e-58 0)
(1.51031e-56 -2.00009e-56 0)
(9.40042e-55 -7.26789e-55 0)
(2.38719e-53 -4.4258e-53 0)
(1.37074e-51 -1.08907e-51 0)
(1.81524e-50 -6.1216e-50 0)
(9.46794e-49 -7.96935e-49 0)
(9.13447e-49 -4.06385e-47 0)
(-1.86738e-48 -3.99018e-47 0)
(-1.87169e-48 3.99004e-47 0)
(5.89137e-49 4.05703e-47 0)
(-1.22574e-47 -4.03585e-48 0)
(-9.25939e-46 -1.92038e-46 0)
(-2.84625e-44 -1.29529e-44 0)
(-1.92509e-42 -3.96641e-43 0)
(-4.08039e-41 -2.58533e-41 0)
(-2.70736e-39 -5.68874e-40 0)
(-3.1639e-38 -3.65966e-38 0)
(-2.0909e-36 -5.07176e-37 0)
(4.05676e-40 -3.20035e-35 0)
(2.10561e-36 -4.47366e-37 0)
(-1.87336e-38 -2.18134e-37 0)
(1.83508e-38 -2.37751e-38 0)
(5.73833e-40 -2.12733e-38 0)
(3.2354e-40 -3.42259e-40 0)
(5.78028e-42 -2.71552e-41 0)
(4.48617e-43 -4.19932e-43 0)
(7.5561e-45 -1.91002e-44 0)
(3.33991e-46 -2.86964e-46 0)
(5.36706e-48 -1.03857e-47 0)
(1.2627e-49 -2.58814e-48 0)
(-9.16474e-50 1.2462e-48 0)
(3.77196e-50 3.68512e-48 0)
(9.41516e-50 -1.205e-48 0)
(-3.69185e-50 -2.45437e-48 0)
(-5.67901e-50 1.20684e-48 0)
(1.81185e-50 1.24941e-48 0)
(1.91594e-50 2.39544e-50 0)
(3.83733e-52 1.80858e-51 0)
(2.79357e-53 3.14964e-53 0)
(5.0261e-55 1.24022e-54 0)
(1.90629e-56 1.99254e-56 0)
(3.12929e-58 5.26825e-58 0)
(7.97463e-60 7.77446e-60 0)
(1.21222e-61 1.51177e-61 0)
(1.21251e-61 -1.51209e-61 0)
(7.97686e-60 -7.77649e-60 0)
(3.13046e-58 -5.26976e-58 0)
(1.90708e-56 -1.99331e-56 0)
(5.02915e-55 -1.24073e-54 0)
(2.79544e-53 -3.15158e-53 0)
(3.84214e-52 -1.8098e-51 0)
(1.91866e-50 -2.39847e-50 0)
(1.84603e-50 -1.2512e-48 0)
(-3.90626e-50 -1.22955e-48 0)
(-8.98033e-50 1.18426e-48 0)
(-3.6477e-48 -9.10224e-49 0)
(-1.45765e-46 -1.62325e-46 0)
(-9.82941e-45 -6.28886e-45 0)
(-3.01141e-43 -4.56476e-43 0)
(-1.96226e-41 -1.36183e-41 0)
(-4.31378e-40 -9.74951e-40 0)
(-2.76741e-38 -2.10818e-38 0)
(-3.73262e-37 -1.54111e-36 0)
(-2.36529e-35 -2.22619e-35 0)
(-9.76342e-39 -1.68325e-33 0)
(2.3497e-35 -2.01368e-35 0)
(-8.39311e-39 -1.48731e-39 0)
(-6.6345e-37 -2.17278e-38 0)
(-5.0683e-36 -1.76618e-36 0)
(-5.16016e-34 -1.72566e-36 0)
(-5.11603e-34 3.51509e-36 0)
(5.11603e-34 3.51509e-36 0)
(5.16016e-34 -1.72566e-36 0)
(5.0683e-36 -1.76618e-36 0)
(6.63453e-37 -2.17285e-38 0)
(7.9632e-39 -1.49997e-39 0)
(5.38377e-40 -1.91504e-41 0)
(6.8607e-42 -8.51679e-43 0)
(-3.98911e-50 -2.19449e-44 0)
(-6.86071e-42 -8.51679e-43 0)
(-5.38377e-40 -1.91504e-41 0)
(-7.9632e-39 -1.49997e-39 0)
(-6.63453e-37 -2.17285e-38 0)
(-5.06831e-36 -1.76618e-36 0)
(-5.16016e-34 -1.72568e-36 0)
(-5.11611e-34 3.51359e-36 0)
(5.10939e-34 3.49334e-36 0)
(5.10939e-34 -3.49334e-36 0)
(-5.11611e-34 -3.51359e-36 0)
(-5.16016e-34 1.72568e-36 0)
(-5.06831e-36 1.76618e-36 0)
(-6.63453e-37 2.17285e-38 0)
(-7.96321e-39 1.49997e-39 0)
(-5.38681e-40 1.91394e-41 0)
(-1.3733e-41 -3.49972e-46 0)
(-5.38982e-40 -1.915e-41 0)
(-7.96977e-39 -1.50081e-39 0)
(-6.63985e-37 -2.17468e-38 0)
(-5.07573e-36 -1.76766e-36 0)
(-5.16672e-34 -1.74591e-36 0)
(-5.16016e-34 1.76916e-36 0)
(-2.70019e-45 3.53536e-36 0)
(5.16016e-34 1.76916e-36 0)
(5.16672e-34 -1.74591e-36 0)
(5.07521e-36 -1.76766e-36 0)
(6.61016e-37 -2.09497e-38 0)
(-2.03714e-40 7.31088e-40 0)
(-1.35787e-38 1.08676e-38 0)
(-1.22049e-37 8.84326e-37 0)
(-8.80131e-36 8.64057e-37 0)
(-8.69265e-36 -1.76001e-36 0)
(8.69265e-36 -1.76001e-36 0)
(8.80131e-36 8.64057e-37 0)
(1.22049e-37 8.84326e-37 0)
(1.35788e-38 1.0868e-38 0)
(1.95762e-40 7.47108e-40 0)
(1.21427e-41 9.52316e-42 0)
(1.75999e-43 4.22679e-43 0)
(-1.07418e-51 1.08747e-44 0)
(-1.75999e-43 4.22679e-43 0)
(-1.21427e-41 9.52316e-42 0)
(-1.95762e-40 7.47108e-40 0)
(-1.35788e-38 1.0868e-38 0)
(-1.22049e-37 8.84326e-37 0)
(-8.80132e-36 8.64066e-37 0)
(-8.69285e-36 -1.75926e-36 0)
(8.67906e-36 -1.74913e-36 0)
(8.67906e-36 1.74913e-36 0)
(-8.69285e-36 1.75926e-36 0)
(-8.80132e-36 -8.64066e-37 0)
(-1.22049e-37 -8.84326e-37 0)
(-1.35788e-38 -1.0868e-38 0)
(-1.95762e-40 -7.47108e-40 0)
(-1.215e-41 -9.51772e-42 0)
(-3.5231e-43 1.73263e-46 0)
(-1.21573e-41 9.52298e-42 0)
(-1.95931e-40 7.47525e-40 0)
(-1.35907e-38 1.08771e-38 0)
(-1.22232e-37 8.85064e-37 0)
(-8.8147e-36 8.74187e-37 0)
(-8.80131e-36 -8.85812e-37 0)
(-8.19834e-47 -1.77015e-36 0)
(8.80131e-36 -8.85812e-37 0)
(8.8147e-36 8.74187e-37 0)
(1.22219e-37 8.85059e-37 0)
(1.34894e-38 9.43019e-39 0)
(-1.82549e-41 1.64458e-41 0)
(-1.15381e-39 2.66122e-40 0)
(-2.7025e-39 1.77682e-38 0)
(-1.049e-37 1.7269e-38 0)
(-1.03336e-37 -3.53204e-38 0)
(1.03336e-37 -3.53204e-38 0)
(1.049e-37 1.7269e-38 0)
(2.7025e-39 1.77682e-38 0)
(1.1538e-39 2.6613e-40 0)
(1.66469e-41 1.68677e-41 0)
(1.29208e-42 2.44897e-43 0)
(1.80934e-44 1.02485e-44 0)
(-1.06735e-52 2.91804e-46 0)
(-1.80934e-44 1.02485e-44 0)
(-1.29208e-42 2.44897e-43 0)
(-1.66469e-41 1.68677e-41 0)
(-1.15381e-39 2.6613e-40 0)
(-2.70252e-39 1.77682e-38 0)
(-1.04902e-37 1.72692e-38 0)
(-1.03353e-37 -3.53035e-38 0)
(1.02181e-37 -3.5054e-38 0)
(1.02181e-37 3.5054e-38 0)
(-1.03353e-37 3.53035e-38 0)
(-1.04902e-37 -1.72692e-38 0)
(-2.70252e-39 -1.77682e-38 0)
(-1.15381e-39 -2.6613e-40 0)
(-1.66469e-41 -1.68677e-41 0)
(-1.29289e-42 -2.44751e-43 0)
(-3.62195e-44 4.44527e-48 0)
(-1.29369e-42 2.44892e-43 0)
(-1.66642e-41 1.68778e-41 0)
(-1.15508e-39 2.66365e-40 0)
(-2.71787e-39 1.77848e-38 0)
(-1.06039e-37 1.75185e-38 0)
(-1.049e-37 -1.78017e-38 0)
(-2.27765e-49 -3.55701e-38 0)
(1.049e-37 -1.78017e-38 0)
(1.06039e-37 1.75185e-38 0)
(2.71826e-39 1.77847e-38 0)
(1.16212e-39 2.32121e-40 0)
(-4.42915e-43 1.75983e-42 0)
(-2.48698e-41 2.31145e-41 0)
(-4.11237e-41 1.59157e-39 0)
(-9.82082e-40 1.54887e-39 0)
(-9.65453e-40 -3.16538e-39 0)
(9.65453e-40 -3.16538e-39 0)
(9.82082e-40 1.54887e-39 0)
(4.11236e-41 1.59157e-39 0)
(2.48695e-41 2.31159e-41 0)
(4.04446e-43 1.80166e-42 0)
(3.05612e-44 2.52474e-44 0)
(4.68156e-46 1.12972e-45 0)
(-2.83815e-54 3.07837e-47 0)
(-4.68156e-46 1.12972e-45 0)
(-3.05612e-44 2.52474e-44 0)
(-4.04447e-43 1.80166e-42 0)
(-2.48696e-41 2.31159e-41 0)
(-4.11241e-41 1.59157e-39 0)
(-9.82112e-40 1.54889e-39 0)
(-9.65858e-40 -3.16358e-39 0)
(9.40553e-40 -3.14224e-39 0)
(9.40553e-40 3.14224e-39 0)
(-9.65858e-40 3.16358e-39 0)
(-9.82112e-40 -1.54889e-39 0)
(-4.11241e-41 -1.59157e-39 0)
(-2.48696e-41 -2.31159e-41 0)
(-4.04447e-43 -1.80166e-42 0)
(-3.05814e-44 -2.5232e-44 0)
(-9.37191e-46 4.73788e-49 0)
(-3.06014e-44 2.52469e-44 0)
(-4.04895e-43 1.80278e-42 0)
(-2.48997e-41 2.314e-41 0)
(-4.1498e-41 1.59335e-39 0)
(-1.00658e-39 1.57021e-39 0)
(-9.82082e-40 -1.59515e-39 0)
(1.64614e-50 -3.18674e-39 0)
(9.82082e-40 -1.59515e-39 0)
(1.00658e-39 1.57021e-39 0)
(4.15109e-41 1.59332e-39 0)
(2.5107e-41 1.96673e-41 0)
(-2.35784e-44 4.15444e-44 0)
(-1.33858e-42 5.63023e-43 0)
(-1.43388e-42 3.44934e-41 0)
(-4.63324e-42 3.34507e-41 0)
(-4.51848e-42 -6.85505e-41 0)
(4.51848e-42 -6.85505e-41 0)
(4.63324e-42 3.34507e-41 0)
(1.43388e-42 3.44934e-41 0)
(1.33856e-42 5.63057e-43 0)
(2.11126e-44 4.26247e-44 0)
(1.69678e-45 6.53398e-46 0)
(2.51415e-47 2.81966e-47 0)
(-1.3606e-55 8.24847e-49 0)
(-2.51416e-47 2.81966e-47 0)
(-1.69678e-45 6.53399e-46 0)
(-2.11126e-44 4.26247e-44 0)
(-1.33856e-42 5.63057e-43 0)
(-1.43391e-42 3.44935e-41 0)
(-4.63494e-42 3.34513e-41 0)
(-4.53962e-42 -6.85078e-41 0)
(3.17822e-42 -6.79868e-41 0)
(3.17822e-42 6.79868e-41 0)
(-4.53962e-42 6.85078e-41 0)
(-4.63494e-42 -3.34513e-41 0)
(-1.43391e-42 -3.44935e-41 0)
(-1.33856e-42 -5.63057e-43 0)
(-2.11126e-44 -4.26247e-44 0)
(-1.69788e-45 -6.52986e-46 0)
(-5.03291e-47 1.22594e-50 0)
(-1.69896e-45 6.53386e-46 0)
(-2.11367e-44 4.26525e-44 0)
(-1.34024e-42 5.63682e-43 0)
(-1.45332e-42 3.45354e-41 0)
(-5.95236e-42 3.39717e-41 0)
(-4.63324e-42 -3.45781e-41 0)
(6.19291e-51 -6.90722e-41 0)
(4.63324e-42 -3.45781e-41 0)
(5.95238e-42 3.39717e-41 0)
(1.45476e-42 3.45348e-41 0)
(1.35715e-42 4.80844e-43 0)
(-5.60938e-46 2.31054e-45 0)
(-2.94272e-44 2.94624e-44 0)
(-2.91854e-44 1.86712e-42 0)
(2.68501e-44 1.81283e-42 0)
(2.70735e-44 -3.71181e-42 0)
(-2.70735e-44 -3.71181e-42 0)
(-2.68501e-44 1.81283e-42 0)
(2.91853e-44 1.86712e-42 0)
(2.94266e-44 2.94645e-44 0)
(5.03324e-46 2.36782e-45 0)
(3.92465e-47 3.51046e-47 0)
(6.20017e-49 1.52736e-48 0)
(-3.31943e-57 4.31574e-50 0)
(-6.20017e-49 1.52736e-48 0)
(-3.92465e-47 3.51046e-47 0)
(-5.03324e-46 2.36782e-45 0)
(-2.94267e-44 2.94645e-44 0)
(-2.9186e-44 1.86712e-42 0)
(2.68109e-44 1.81286e-42 0)
(2.65696e-44 -3.70945e-42 0)
(-5.65394e-44 -3.68232e-42 0)
(-5.65394e-44 3.68232e-42 0)
(2.65696e-44 3.70945e-42 0)
(2.68109e-44 -1.81286e-42 0)
(-2.9186e-44 -1.86712e-42 0)
(-2.94267e-44 -2.94645e-44 0)
(-5.03324e-46 -2.36782e-45 0)
(-3.92726e-47 -3.5083e-47 0)
(-1.24119e-48 6.3038e-52 0)
(-3.92983e-47 3.5104e-47 0)
(-5.03919e-46 2.36933e-45 0)
(-2.94653e-44 2.94981e-44 0)
(-2.965e-44 1.86945e-42 0)
(-2.11183e-45 1.83996e-42 0)
(2.68501e-44 -1.87183e-42 0)
(1.87351e-52 -3.73898e-42 0)
(-2.68501e-44 -1.87183e-42 0)
(2.11238e-45 1.83996e-42 0)
(2.96866e-44 1.86942e-42 0)
(2.98943e-44 2.49558e-44 0)
(-2.14761e-47 5.46127e-47 0)
(-1.15671e-45 7.02628e-46 0)
(-1.11093e-45 4.10794e-44 0)
(3.07665e-45 3.97811e-44 0)
(3.04868e-45 -8.16189e-44 0)
(-3.04868e-45 -8.16189e-44 0)
(-3.07665e-45 3.97811e-44 0)
(1.11093e-45 4.10794e-44 0)
(1.15664e-45 7.02714e-46 0)
(1.92265e-47 5.47724e-47 0)
(1.51001e-48 8.65795e-49 0)
(2.32101e-50 3.63924e-50 0)
(-1.07262e-58 1.08131e-51 0)
(-2.32101e-50 3.63924e-50 0)
(-1.51001e-48 8.65795e-49 0)
(-1.92265e-47 5.47724e-47 0)
(-1.15664e-45 7.02714e-46 0)
(-1.11095e-45 4.10795e-44 0)
(3.07514e-45 3.97819e-44 0)
(3.02943e-45 -8.15641e-44 0)
(-4.20683e-45 -8.09153e-44 0)
(-4.20683e-45 8.09153e-44 0)
(3.02943e-45 8.15641e-44 0)
(3.07514e-45 -3.97819e-44 0)
(-1.11095e-45 -4.10795e-44 0)
(-1.15664e-45 -7.02714e-46 0)
(-1.92265e-47 -5.47724e-47 0)
(-1.51097e-48 -8.65254e-49 0)
(-4.64615e-50 1.52653e-53 0)
(-1.51191e-48 8.65779e-49 0)
(-1.92487e-47 5.48082e-47 0)
(-1.15813e-45 7.03544e-46 0)
(-1.12867e-45 4.11334e-44 0)
(1.93775e-45 4.04298e-44 0)
(3.07665e-45 -4.11882e-44 0)
(9.3778e-54 -8.22685e-44 0)
(-3.07665e-45 -4.11882e-44 0)
(-1.93772e-45 4.04298e-44 0)
(1.13036e-45 4.11324e-44 0)
(1.17726e-45 5.98445e-46 0)
(4.34021e-48 1.3618e-46 0)
(-2.55415e-47 2.43984e-47 0)
(-2.3571e-47 1.61538e-45 0)
(7.19082e-47 1.56587e-45 0)
(7.11421e-47 -3.21031e-45 0)
(-7.11421e-47 -3.21031e-45 0)
(-7.19074e-47 1.56587e-45 0)
(2.35976e-47 1.61545e-45 0)
(2.47668e-47 2.68508e-47 0)
(4.36562e-49 2.10773e-48 0)
(3.31288e-50 3.24153e-50 0)
(5.33342e-52 1.33874e-51 0)
(-2.35019e-60 3.86987e-53 0)
(-5.33342e-52 1.33874e-51 0)
(-3.31288e-50 3.24153e-50 0)
(-4.36563e-49 2.10773e-48 0)
(-2.47668e-47 2.68508e-47 0)
(-2.35981e-47 1.61545e-45 0)
(7.18743e-47 1.5659e-45 0)
(7.0705e-47 -3.2082e-45 0)
(-9.59421e-47 -3.18343e-45 0)
(-9.59421e-47 3.18343e-45 0)
(7.0705e-47 3.2082e-45 0)
(7.18743e-47 -1.5659e-45 0)
(-2.35981e-47 -1.61545e-45 0)
(-2.47668e-47 -2.68508e-47 0)
(-4.36563e-49 -2.10773e-48 0)
(-3.315e-50 -3.2396e-50 0)
(-1.06763e-51 5.29233e-55 0)
(-3.31709e-50 3.24148e-50 0)
(-4.37075e-49 2.10905e-48 0)
(-2.47994e-47 2.68819e-47 0)
(-2.40015e-47 1.61752e-45 0)
(4.75445e-47 1.59064e-45 0)
(7.19074e-47 -1.61963e-45 0)
(2.38273e-55 -3.23511e-45 0)
(-7.19074e-47 -1.61963e-45 0)
(-4.75439e-47 1.59064e-45 0)
(2.40405e-47 1.61748e-45 0)
(2.52525e-47 2.28592e-47 0)
(7.90643e-46 1.0309e-45 0)
(-7.3343e-47 -6.45492e-47 0)
(1.19234e-48 3.23358e-47 0)
(2.32351e-48 3.34279e-47 0)
(2.24995e-48 -6.87187e-47 0)
(-2.24875e-48 -6.87179e-47 0)
(-2.27297e-48 3.3466e-47 0)
(7.27366e-49 3.45951e-47 0)
(7.6376e-49 6.09734e-49 0)
(1.316e-50 4.62451e-50 0)
(9.81066e-52 7.44908e-52 0)
(1.54602e-53 2.96687e-53 0)
(-5.77867e-62 8.87893e-55 0)
(-1.54602e-53 2.96687e-53 0)
(-9.81066e-52 7.44908e-52 0)
(-1.316e-50 4.62451e-50 0)
(-7.6376e-49 6.09734e-49 0)
(-7.27381e-49 3.45952e-47 0)
(2.27199e-48 3.34668e-47 0)
(2.2356e-48 -6.86716e-47 0)
(-3.01351e-48 -6.81074e-47 0)
(-3.01351e-48 6.81074e-47 0)
(2.2356e-48 6.86716e-47 0)
(2.27199e-48 -3.34668e-47 0)
(-7.27381e-49 -3.45952e-47 0)
(-7.6376e-49 -6.09734e-49 0)
(-1.316e-50 -4.62451e-50 0)
(-9.81663e-52 -7.44464e-52 0)
(-3.09465e-53 1.17149e-56 0)
(-9.82251e-52 7.44896e-52 0)
(-1.31749e-50 4.62743e-50 0)
(-7.64726e-49 6.1045e-49 0)
(-7.39559e-49 3.46407e-47 0)
(1.52141e-48 3.40302e-47 0)
(2.27297e-48 -3.4687e-47 0)
(7.60296e-57 -6.92828e-47 0)
(-2.27297e-48 -3.4687e-47 0)
(-1.52139e-48 3.40302e-47 0)
(7.40815e-49 3.46397e-47 0)
(7.79561e-49 5.22385e-49 0)
(1.03659e-43 2.35055e-43 0)
(3.13737e-45 -4.94971e-45 0)
(6.90484e-47 -1.77559e-46 0)
(1.74962e-48 -1.28305e-48 0)
(7.33432e-50 -2.16225e-48 0)
(-4.51532e-50 -2.11652e-48 0)
(-4.62185e-50 1.03109e-48 0)
(1.47026e-50 1.06513e-48 0)
(1.5479e-50 1.83504e-50 0)
(2.78585e-52 1.36706e-51 0)
(1.99914e-53 2.15537e-53 0)
(3.25654e-55 8.31241e-55 0)
(-1.09306e-63 2.43418e-56 0)
(-3.25654e-55 8.31241e-55 0)
(-1.99914e-53 2.15537e-53 0)
(-2.78585e-52 1.36707e-51 0)
(-1.5479e-50 1.83504e-50 0)
(-1.47028e-50 1.06513e-48 0)
(4.62062e-50 1.03112e-48 0)
(4.54296e-50 -2.11461e-48 0)
(-6.12076e-50 -2.0976e-48 0)
(-6.12076e-50 2.0976e-48 0)
(4.54296e-50 2.11461e-48 0)
(4.62062e-50 -1.03112e-48 0)
(-1.47028e-50 -1.06513e-48 0)
(-1.5479e-50 -1.83504e-50 0)
(-2.78585e-52 -1.36706e-51 0)
(-2.00035e-53 -2.15416e-53 0)
(-6.51847e-55 3.08367e-58 0)
(-2.00154e-53 2.15534e-53 0)
(-2.78899e-52 1.36788e-51 0)
(-1.54987e-50 1.83711e-50 0)
(-1.49614e-50 1.06648e-48 0)
(3.10061e-50 1.04811e-48 0)
(4.62262e-50 -1.06785e-48 0)
(1.68577e-58 -2.133e-48 0)
(-4.62262e-50 -1.06785e-48 0)
(-3.10057e-50 1.04811e-48 0)
(1.49877e-50 1.06645e-48 0)
(1.5823e-50 1.57766e-50 0)
(4.44959e-37 -1.23735e-35 0)
(9.547e-37 -3.81781e-37 0)
(3.43449e-38 -2.53994e-37 0)
(1.94826e-38 -4.18158e-39 0)
(3.11164e-40 -2.76379e-40 0)
(2.48876e-41 -4.39507e-42 0)
(3.84163e-43 -1.8858e-43 0)
(1.75475e-44 -2.92635e-45 0)
(2.62131e-46 -9.23475e-47 0)
(8.35683e-48 -1.41466e-48 0)
(1.17709e-49 -1.51162e-50 0)
(3.61928e-51 5.49422e-50 0)
(1.853e-51 -1.81167e-50 0)
(-7.11343e-52 -3.6912e-50 0)
(-1.09436e-51 1.81352e-50 0)
(3.4915e-52 1.88053e-50 0)
(3.68823e-52 3.75763e-52 0)
(7.2192e-54 2.75953e-53 0)
(5.07872e-55 4.95818e-55 0)
(8.93786e-57 1.89215e-56 0)
(3.24432e-58 3.10375e-58 0)
(5.20201e-60 7.94167e-60 0)
(1.26133e-61 1.18416e-61 0)
(1.86531e-63 2.22624e-63 0)
(1.86554e-63 -2.2267e-63 0)
(1.26144e-61 -1.18445e-61 0)
(5.20174e-60 -7.94389e-60 0)
(3.24351e-58 -3.10491e-58 0)
(8.92605e-57 -1.89293e-56 0)
(5.06659e-55 -4.9612e-55 0)
(7.12058e-54 -2.76139e-53 0)
(3.60304e-52 -3.76241e-52 0)
(-1.73727e-52 -1.88326e-50 0)
(-4.25436e-50 -1.84886e-50 0)
(-2.02273e-48 1.77056e-50 0)
(-1.51896e-46 -7.14932e-51 0)
(-5.88904e-45 -3.47334e-48 0)
(-4.27463e-43 -9.53521e-47 0)
(-1.27669e-41 -1.22563e-44 0)
(-9.13544e-40 -3.98865e-43 0)
(-1.97116e-38 -6.46351e-41 0)
(-1.43333e-36 -7.38391e-39 0)
(-1.95055e-35 -1.16309e-36 0)
(-1.49536e-33 -1.33043e-34 0)
(7.39634e-37 -9.527e-33 0)
(1.49606e-33 -1.33489e-34 0)
(1.13457e-34 -1.15187e-34 0)
(1.55289e-34 -2.369e-35 0)
(2.39592e-36 -2.2636e-35 0)
(2.95467e-37 -3.13165e-37 0)
(4.69832e-39 -2.17366e-38 0)
(3.03492e-40 -3.08974e-40 0)
(4.82331e-42 -1.38717e-41 0)
(2.06667e-43 -1.97846e-43 0)
(3.20925e-45 -6.49423e-45 0)
(1.0123e-46 -9.06305e-47 0)
(1.51161e-48 -2.30744e-48 0)
(3.72319e-50 -3.00033e-50 0)
(5.48873e-52 -9.51492e-52 0)
(2.24667e-54 -6.52918e-52 0)
(-1.26014e-53 3.16759e-52 0)
(4.06026e-54 3.28406e-52 0)
(4.29564e-54 6.423e-54 0)
(8.68811e-56 4.52443e-55 0)
(5.891e-57 7.96036e-57 0)
(1.06082e-58 2.89198e-58 0)
(3.7035e-60 4.6371e-60 0)
(6.01191e-62 1.12484e-61 0)
(1.4008e-63 1.63421e-63 0)
(2.07295e-65 2.90744e-65 0)
(2.07655e-65 -2.90719e-65 0)
(1.40456e-63 -1.63371e-63 0)
(6.04679e-62 -1.12421e-61 0)
(3.73653e-60 -4.62978e-60 0)
(1.08777e-58 -2.88475e-58 0)
(6.12524e-57 -7.89408e-57 0)
(1.03471e-55 -4.4678e-55 0)
(5.62642e-54 -5.99165e-54 0)
(8.44627e-53 -2.95371e-52 0)
(5.9942e-51 1.80444e-51 0)
(3.02956e-49 1.49031e-49 0)
(2.13215e-47 8.0048e-48 0)
(8.7244e-46 5.17987e-46 0)
(5.86794e-44 2.29873e-44 0)
(1.87044e-42 1.37001e-42 0)
(1.22593e-40 4.1195e-41 0)
(2.85392e-39 7.46368e-40 0)
(1.87748e-37 -3.78711e-37 0)
(2.78883e-36 -7.74261e-35 0)
(1.9033e-34 -1.15971e-32 0)
(1.42624e-34 -1.19436e-30 0)
(-4.54998e-35 -1.16404e-32 0)
(1.7684e-32 -1.03934e-32 0)
(1.79932e-32 -1.01872e-34 0)
(1.99683e-34 -6.95933e-37 0)
(2.63587e-35 -3.72971e-39 0)
(3.54664e-37 -4.68119e-42 0)
(2.41911e-38 1.13635e-43 0)
(3.43573e-40 6.3428e-45 0)
(1.54228e-41 8.81575e-47 0)
(2.19977e-43 2.35054e-48 0)
(7.2211e-45 3.08726e-50 0)
(1.00778e-46 6.52346e-52 0)
(2.5662e-48 1.95301e-53 0)
(3.44408e-50 -3.57747e-54 0)
(7.0605e-52 -7.57934e-54 0)
(8.80257e-54 3.72296e-54 0)
(2.11765e-55 3.86356e-54 0)
(6.47964e-56 7.81205e-56 0)
(1.27635e-57 5.29663e-57 0)
(8.10252e-59 9.53705e-59 0)
(1.43047e-60 3.32996e-60 0)
(4.72112e-62 5.40544e-62 0)
(7.49875e-64 1.25961e-63 0)
(1.64985e-65 1.83231e-65 0)
(2.44609e-67 3.12977e-67 0)
(1.01532e-66 -3.13398e-67 0)
(9.70667e-65 -1.83677e-65 0)
(8.60154e-63 -1.26439e-63 0)
(7.68495e-61 -5.45015e-62 0)
(6.32035e-59 -3.37374e-60 0)
(5.15554e-57 -9.89293e-59 0)
(3.81732e-55 -5.61783e-57 0)
(2.82375e-53 -1.00481e-55 0)
(1.8335e-51 -5.7399e-54 0)
(1.23374e-49 -1.13763e-52 0)
(6.86975e-48 -8.66895e-51 0)
(4.23764e-46 -4.19706e-49 0)
(1.97525e-44 -3.14605e-47 0)
(1.12851e-42 -1.21073e-45 0)
(4.25787e-41 -8.49852e-44 0)
(2.28395e-39 -1.64772e-42 0)
(6.60865e-38 5.75565e-41 0)
(3.39608e-36 4.85769e-38 0)
(6.77547e-35 9.13098e-36 0)
(3.3681e-33 1.33865e-33 0)
(1.80068e-32 1.37008e-31 0)
(1.4834e-32 1.33838e-33 0)
(1.64958e-34 -1.03714e-32 0)
(1.29518e-34 -7.94644e-35 0)
(2.10075e-36 2.19196e-35 0)
(2.70815e-37 3.09235e-37 0)
(4.38134e-39 2.17247e-38 0)
(2.87791e-40 3.08994e-40 0)
(4.6123e-42 1.38748e-41 0)
(1.99318e-43 1.97891e-43 0)
(3.11036e-45 6.49543e-45 0)
(9.86162e-47 9.06456e-47 0)
(1.47732e-48 2.3081e-48 0)
(3.65032e-50 3.09758e-50 0)
(5.18713e-52 6.35073e-52 0)
(1.03733e-53 7.97354e-54 0)
(1.363e-55 1.91607e-55 0)
(2.94171e-57 5.83706e-56 0)
(7.11257e-58 1.1496e-57 0)
(1.43222e-59 7.29468e-59 0)
(8.6368e-61 1.28776e-60 0)
(1.54855e-62 4.24963e-62 0)