/*--------------------------------*- C++ -*----------------------------------*\
| =========                 |                                                 |
| \\      /  F ield         | OpenFOAM: The Open Source CFD Toolbox           |
|  \\    /   O peration     | Version:  2.4.0                                 |
|   \\  /    A nd           | Web:      www.OpenFOAM.org                      |
|    \\/     M anipulation  |                                                 |
\*---------------------------------------------------------------------------*/
FoamFile
{
    version     2.0;
    format      ascii;
    class       volVectorField;
    location    "0.25";
    object      U;
}
// * * * * * * * * * * * * * * * * * * * * * * * * * * * * * * * * * * * * * //

dimensions      [0 1 -1 0 0 0 0];

internalField   nonuniform List<vector> 
1935
(
(9.93424e-37 2.36333e-37 0)
(1.74874e-35 2.30713e-36 0)
(1.07852e-34 3.77447e-35 0)
(2.28167e-33 3.35826e-35 0)
(2.19044e-33 -7.3894e-35 0)
(-2.19033e-33 -7.38804e-35 0)
(-2.2806e-33 3.38418e-35 0)
(-8.93902e-35 4.02989e-35 0)
(1.07953e-34 4.23746e-35 0)
(2.38962e-33 7.1833e-35 0)
(4.49056e-33 -3.7731e-35 0)
(1.26403e-34 -1.07477e-34 0)
(-2.06402e-33 3.35826e-35 0)
(2.20899e-33 7.13272e-35 0)
(2.28273e-33 -3.38428e-35 0)
(1.07953e-34 -3.77594e-35 0)
(1.7496e-35 -2.30869e-36 0)
(9.65935e-37 -2.45598e-37 0)
(9.54728e-38 -1.36627e-38 0)
(5.23486e-39 -1.03625e-39 0)
(3.91635e-40 -5.41862e-41 0)
(2.03648e-41 -3.37381e-42 0)
(1.25959e-42 -1.64679e-43 0)
(6.45118e-44 -8.45598e-45 0)
(6.46464e-44 8.4752e-45 0)
(1.26272e-42 1.65062e-43 0)
(2.04228e-41 3.38227e-42 0)
(3.92833e-40 5.4342e-41 0)
(5.25396e-39 1.03946e-39 0)
(9.5844e-38 1.37135e-38 0)
(9.70776e-37 2.4658e-37 0)
(1.75862e-35 2.32131e-36 0)
(1.08822e-34 3.79913e-35 0)
(2.29925e-33 3.59038e-35 0)
(2.29925e-33 -3.59038e-35 0)
(1.08822e-34 -3.79913e-35 0)
(1.75862e-35 -2.32131e-36 0)
(9.70776e-37 -2.4658e-37 0)
(9.5844e-38 -1.37135e-38 0)
(5.25396e-39 -1.03946e-39 0)
(3.92833e-40 -5.43426e-41 0)
(2.04187e-41 -3.38898e-42 0)
(1.23567e-42 -2.58891e-43 0)
(-2.4176e-43 -6.26846e-43 0)
(1.1327e-37 -1.11171e-37 0)
(1.78268e-36 -1.17165e-36 0)
(1.18979e-35 -1.91947e-35 0)
(1.77306e-34 -1.70765e-35 0)
(1.6709e-34 3.75722e-35 0)
(-1.67078e-34 3.75655e-35 0)
(-1.77183e-34 -1.72055e-35 0)
(-1.00017e-35 -2.04895e-35 0)
(1.19094e-35 -2.1546e-35 0)
(1.89216e-34 -3.6523e-35 0)
(3.46292e-34 1.9188e-35 0)
(1.38043e-35 5.46486e-35 0)
(-1.53285e-34 -1.70765e-35 0)
(1.68996e-34 -3.62711e-35 0)
(1.7743e-34 1.7206e-35 0)
(1.19094e-35 1.9202e-35 0)
(1.7838e-36 1.17255e-36 0)
(1.12445e-37 1.22309e-37 0)
(1.08256e-38 6.74533e-39 0)
(6.3665e-40 5.0514e-40 0)
(4.72476e-41 2.62116e-41 0)
(2.56727e-42 1.61907e-42 0)
(1.58708e-43 7.85541e-44 0)
(8.38345e-45 4.01284e-45 0)
(8.4014e-45 -4.02188e-45 0)
(1.59115e-43 -7.87351e-44 0)
(2.5748e-42 -1.62308e-42 0)
(4.73983e-41 -2.6286e-41 0)
(6.39058e-40 -5.0668e-40 0)
(1.08702e-38 -6.76992e-39 0)
(1.13034e-37 -1.22788e-37 0)
(1.79399e-36 -1.17878e-36 0)
(1.20109e-35 -1.93175e-35 0)
(1.791e-34 -1.82552e-35 0)
(1.791e-34 1.82552e-35 0)
(1.20109e-35 1.93175e-35 0)
(1.79399e-36 1.17878e-36 0)
(1.13034e-37 1.22788e-37 0)
(1.08702e-38 6.76992e-39 0)
(6.39058e-40 5.06679e-40 0)
(4.73933e-41 2.62772e-41 0)
(2.50503e-42 1.52371e-42 0)
(-3.03294e-43 -1.32838e-42 0)
(-5.24722e-42 -9.39855e-42 0)
(1.80001e-38 -1.24749e-38 0)
(2.39249e-37 -1.34017e-37 0)
(8.62476e-37 -1.84063e-36 0)
(9.31916e-36 -1.59791e-36 0)
(8.68099e-36 3.58726e-36 0)
(-8.67883e-36 3.58644e-36 0)
(-9.30036e-36 -1.61257e-36 0)
(-6.06228e-37 -1.98859e-36 0)
(8.64506e-37 -2.10963e-36 0)
(1.01837e-35 -3.46711e-36 0)
(1.82563e-35 1.83981e-36 0)
(1.1205e-36 5.18516e-36 0)
(-7.56025e-36 -1.59791e-36 0)
(8.93901e-36 -3.43854e-36 0)
(9.33805e-36 1.61263e-36 0)
(8.64506e-37 1.84152e-36 0)
(2.39376e-37 1.3412e-37 0)
(1.68765e-38 1.38438e-38 0)
(1.90832e-39 8.2374e-40 0)
(1.17826e-40 6.12936e-41 0)
(9.31516e-42 3.32885e-42 0)
(5.1808e-43 2.05582e-43 0)
(3.29483e-44 1.02961e-44 0)
(1.76024e-45 5.27135e-46 0)
(1.76406e-45 -5.28359e-46 0)
(3.30348e-44 -1.03205e-44 0)
(5.19658e-43 -2.06109e-43 0)
(9.34642e-42 -3.3386e-42 0)
(1.18311e-40 -6.14889e-41 0)
(1.91711e-39 -8.26862e-40 0)
(1.69849e-38 -1.39017e-38 0)
(2.41166e-37 -1.34882e-37 0)
(8.79456e-37 -1.85453e-36 0)
(9.56031e-36 -1.73279e-36 0)
(9.56031e-36 1.73279e-36 0)
(8.79456e-37 1.85453e-36 0)
(2.41166e-37 1.34882e-37 0)
(1.69849e-38 1.39017e-38 0)
(1.91711e-39 8.26862e-40 0)
(1.18304e-40 6.14816e-41 0)
(9.27136e-42 3.2187e-42 0)
(-5.42287e-43 -1.15029e-42 0)
(-7.03277e-42 -1.93627e-41 0)
(-8.17554e-41 -1.30569e-40 0)
(1.61818e-39 -2.24772e-39 0)
(1.91349e-38 -2.12256e-38 0)
(4.64929e-38 -2.80391e-37 0)
(3.7194e-37 -2.42464e-37 0)
(3.43266e-37 5.46729e-37 0)
(-3.43064e-37 5.46575e-37 0)
(-3.70267e-37 -2.45105e-37 0)
(-2.58544e-38 -3.04124e-37 0)
(4.66829e-38 -3.23027e-37 0)
(4.18622e-37 -5.27993e-37 0)
(7.35831e-37 2.80236e-37 0)
(6.72965e-38 7.89193e-37 0)
(-2.75946e-37 -2.42464e-37 0)
(3.64069e-37 -5.22854e-37 0)
(3.73623e-37 2.45117e-37 0)
(4.66829e-38 2.80557e-37 0)
(1.91447e-38 2.12478e-38 0)
(1.49414e-39 2.4869e-39 0)
(1.78157e-40 1.54329e-40 0)
(1.15877e-41 1.2212e-41 0)
(9.33977e-43 6.78915e-43 0)
(5.36099e-44 4.31466e-44 0)
(3.44432e-45 2.1848e-45 0)
(1.87943e-46 1.13239e-46 0)
(1.88359e-46 -1.13504e-46 0)
(3.45361e-45 -2.19006e-45 0)
(5.37783e-44 -4.32598e-44 0)
(9.37242e-43 -6.8098e-43 0)
(1.16379e-41 -1.22529e-41 0)
(1.79037e-40 -1.54965e-40 0)
(1.50479e-39 -2.49843e-39 0)
(1.93111e-38 -2.13899e-38 0)
(4.7997e-38 -2.82888e-37 0)
(3.91251e-37 -2.63854e-37 0)
(3.91251e-37 2.63854e-37 0)
(4.7997e-38 2.82888e-37 0)
(1.93111e-38 2.13899e-38 0)
(1.50479e-39 2.49843e-39 0)
(1.79032e-40 1.54958e-40 0)
(1.15472e-41 1.21567e-41 0)
(-8.79035e-44 -9.31825e-43 0)
(-1.4574e-41 -1.83e-41 0)
(-9.81607e-41 -2.66844e-40 0)
(-1.14822e-39 -1.81909e-39 0)
(1.53655e-40 -3.40206e-40 0)
(1.84104e-39 -1.93868e-39 0)
(2.61494e-39 -2.35454e-38 0)
(9.66525e-39 -2.01189e-38 0)
(8.7538e-39 4.58178e-38 0)
(-8.73182e-39 4.58028e-38 0)
(-9.49462e-39 -2.03664e-38 0)
(-6.27827e-40 -2.56864e-38 0)
(2.63442e-39 -2.73877e-38 0)
(1.22988e-38 -4.41332e-38 0)
(2.04027e-38 2.3517e-38 0)
(4.61771e-39 6.59358e-38 0)
(-4.13346e-39 -2.01178e-38 0)
(1.07575e-38 -4.36499e-38 0)
(9.83548e-39 2.03676e-38 0)
(2.63442e-39 2.35487e-38 0)
(1.83552e-39 1.92081e-39 0)
(1.50558e-40 2.33456e-40 0)
(1.92379e-41 1.52255e-41 0)
(1.28247e-42 1.22718e-42 0)
(1.06218e-43 7.04094e-44 0)
(6.17871e-45 4.52034e-45 0)
(4.01746e-46 2.33733e-46 0)
(2.20744e-47 1.21845e-47 0)
(2.21237e-47 -1.22136e-47 0)
(4.02841e-46 -2.34307e-46 0)
(6.19848e-45 -4.53253e-45 0)
(1.06599e-43 -7.06303e-44 0)
(1.28825e-42 -1.23147e-42 0)
(1.93379e-41 -1.52914e-41 0)
(1.51734e-40 -2.34612e-40 0)
(1.85347e-39 -1.9348e-39 0)
(2.76553e-39 -2.37668e-38 0)
(1.15179e-38 -2.20525e-38 0)
(1.15179e-38 2.20525e-38 0)
(2.76553e-39 2.37668e-38 0)
(1.85347e-39 1.9348e-39 0)
(1.51729e-40 2.34609e-40 0)
(1.92649e-41 1.52174e-41 0)
(6.69549e-44 1.24579e-43 0)
(-1.37655e-41 -1.8619e-41 0)
(-2.01598e-40 -2.14444e-40 0)
(-1.36846e-39 -3.15747e-39 0)
(-1.64195e-38 -2.19847e-38 0)
(-1.92891e-40 -1.66762e-39 0)
(2.2906e-40 -4.71177e-40 0)
(1.5866e-40 -2.55123e-39 0)
(5.50959e-41 -2.03152e-39 0)
(2.98803e-41 4.60111e-39 0)
(-2.7094e-41 4.60141e-39 0)
(-3.15873e-41 -2.04255e-39 0)
(6.29704e-42 -2.5862e-39 0)
(1.4564e-40 -2.75962e-39 0)
(1.90756e-40 -4.43165e-39 0)
(2.24254e-40 2.36195e-39 0)
(2.95659e-40 6.61874e-39 0)
(2.66866e-40 -2.0155e-39 0)
(1.80711e-40 -4.37914e-39 0)
(5.8744e-41 2.04267e-39 0)
(1.4564e-40 2.36548e-39 0)
(1.38308e-40 1.9722e-40 0)
(1.19471e-41 2.5348e-41 0)
(1.57366e-42 1.69063e-42 0)
(1.08189e-43 1.39926e-43 0)
(9.0774e-45 8.13535e-45 0)
(5.38502e-46 5.28589e-46 0)
(3.52494e-47 2.75168e-47 0)
(1.96204e-48 1.44084e-48 0)
(1.96646e-48 -1.44429e-48 0)
(3.53471e-47 -2.75849e-47 0)
(5.40259e-46 -5.3003e-46 0)
(9.11078e-45 -8.16135e-45 0)
(1.08692e-43 -1.40427e-43 0)
(1.58219e-42 -1.69823e-42 0)
(1.20461e-41 -2.54797e-41 0)
(1.39772e-40 -1.9877e-40 0)
(1.55995e-40 -2.38912e-39 0)
(1.84888e-40 -2.21427e-39 0)
(1.84888e-40 2.21427e-39 0)
(1.55995e-40 2.38912e-39 0)
(1.39769e-40 1.98768e-40 0)
(1.199e-41 2.54352e-41 0)
(7.42693e-43 8.44882e-43 0)
(-1.40579e-41 -1.27033e-41 0)
(-1.62316e-40 -2.2104e-40 0)
(-2.38742e-39 -2.56757e-39 0)
(-1.65478e-38 -3.89277e-38 0)
(-2.01075e-37 -2.78048e-37 0)
(-2.54683e-39 -2.14315e-38 0)
(1.18033e-39 -3.36219e-39 0)
(2.11731e-40 -2.43625e-39 0)
(1.19718e-40 -3.43378e-40 0)
(-8.64068e-42 3.28243e-40 0)
(2.24661e-41 3.5116e-40 0)
(2.26778e-41 -1.55993e-40 0)
(2.60511e-42 -1.99241e-40 0)
(9.80805e-42 -2.13056e-40 0)
(-1.16308e-41 -3.39326e-40 0)
(-2.98923e-41 1.81243e-40 0)
(2.20462e-41 5.06625e-40 0)
(4.27672e-41 -1.53631e-40 0)
(-8.31948e-42 -3.35016e-40 0)
(-2.03008e-41 1.55863e-40 0)
(9.80748e-42 1.81541e-40 0)
(1.12657e-41 1.577e-41 0)
(9.9355e-43 2.07814e-42 0)
(1.34606e-43 1.42823e-43 0)
(9.38508e-45 1.19714e-44 0)
(7.9705e-46 7.09816e-46 0)
(4.76815e-47 4.64298e-47 0)
(3.13643e-48 2.44809e-48 0)
(1.75329e-49 1.28596e-49 0)
(1.75725e-49 -1.28907e-49 0)
(3.14516e-48 -2.45421e-48 0)
(4.78384e-47 -4.65584e-47 0)
(8.00019e-46 -7.12128e-46 0)
(9.4296e-45 -1.20154e-44 0)
(1.35355e-43 -1.43486e-43 0)
(1.00213e-42 -2.08939e-42 0)
(1.13908e-41 -1.59008e-41 0)
(1.06648e-41 -1.83475e-40 0)
(-1.00475e-41 -1.69531e-40 0)
(-1.00476e-41 1.69531e-40 0)
(1.06629e-41 1.83474e-40 0)
(1.13569e-41 1.58787e-41 0)
(3.53831e-43 1.69249e-42 0)
(-9.61593e-42 -7.5044e-42 0)
(-1.67704e-40 -1.16046e-40 0)
(-1.94498e-39 -2.01979e-39 0)
(-2.94463e-38 -2.39461e-38 0)
(-2.0916e-37 -3.70158e-37 0)
(-2.6436e-36 -2.78037e-36 0)
(-3.12737e-38 -2.27743e-37 0)
(1.70016e-38 -4.07086e-38 0)
(2.61429e-39 -2.94313e-38 0)
(1.70061e-39 -2.40736e-39 0)
(1.41095e-40 -2.77979e-40 0)
(2.06819e-41 8.59813e-42 0)
(3.42594e-42 -1.44957e-41 0)
(3.43435e-43 -1.65136e-41 0)
(6.42186e-43 -1.75719e-41 0)
(-1.42846e-42 -2.78989e-41 0)
(-3.16699e-42 1.49074e-41 0)
(1.49546e-42 4.16449e-41 0)
(3.45953e-42 -1.26094e-41 0)
(-1.0925e-42 -2.75291e-41 0)
(-1.98257e-42 1.28008e-41 0)
(6.35811e-43 1.49333e-41 0)
(7.8958e-43 1.31721e-42 0)
(7.15916e-44 1.78056e-43 0)
(9.83531e-45 1.24051e-44 0)
(6.98777e-46 1.05234e-45 0)
(5.97328e-47 6.29201e-47 0)
(3.61727e-48 4.13584e-48 0)
(2.38635e-49 2.18998e-49 0)
(1.34419e-50 1.1514e-50 0)
(1.34725e-50 -1.15418e-50 0)
(2.39305e-49 -2.19548e-49 0)
(3.6293e-48 -4.14736e-48 0)
(5.99586e-47 -6.3127e-47 0)
(7.02154e-46 -1.05626e-45 0)
(9.8914e-45 -1.24638e-44 0)
(7.22302e-44 -1.79045e-43 0)
(7.98709e-43 -1.32856e-42 0)
(6.97446e-43 -1.50988e-41 0)
(-1.26602e-42 -1.39379e-41 0)
(-1.26678e-42 1.39374e-41 0)
(6.80634e-43 1.50891e-41 0)
(4.96355e-43 1.12106e-42 0)
(-5.75141e-42 -3.58127e-42 0)
(-8.83025e-41 -7.39505e-41 0)
(-1.53552e-39 -1.13617e-39 0)
(-1.8161e-38 -2.04086e-38 0)
(-2.79949e-37 -2.47827e-37 0)
(-2.08178e-36 -4.03375e-36 0)
(-2.67163e-35 -3.20404e-35 0)
(-2.74902e-37 -2.71732e-36 0)
(2.33158e-37 -4.15967e-37 0)
(3.59575e-38 -2.87071e-37 0)
(2.23215e-38 -2.29075e-38 0)
(1.80456e-39 -2.80364e-39 0)
(2.31925e-40 -1.81218e-40 0)
(1.56013e-41 -1.57997e-41 0)
(1.3025e-42 -2.01549e-42 0)
(1.1879e-43 -1.29608e-42 0)
(-1.12969e-43 -1.96276e-42 0)
(-2.53344e-43 1.04861e-42 0)
(1.05521e-43 2.92495e-42 0)
(2.5885e-43 -8.83157e-43 0)
(-9.09991e-44 -1.93285e-42 0)
(-1.5593e-43 8.97176e-43 0)
(4.40378e-44 1.0507e-42 0)
(5.64036e-44 9.50964e-44 0)
(5.17791e-45 1.30219e-44 0)
(7.19691e-46 9.24329e-46 0)
(5.16032e-47 7.89195e-47 0)
(4.43202e-48 4.77662e-48 0)
(2.6985e-49 3.14893e-49 0)
(1.78195e-50 1.6801e-50 0)
(1.00609e-51 8.8386e-52 0)
(1.00838e-51 -8.86006e-52 0)
(1.78696e-50 -1.68433e-50 0)
(2.70751e-49 -3.15777e-49 0)
(4.44888e-48 -4.79249e-48 0)
(5.1855e-47 -7.92175e-47 0)
(7.2385e-46 -9.28789e-46 0)
(5.22502e-45 -1.3096e-44 0)
(5.70705e-44 -9.59414e-44 0)
(4.84716e-44 -1.0628e-42 0)
(-1.05168e-43 -9.79204e-43 0)
(-1.12212e-43 9.76504e-43 0)
(-1.10054e-43 1.00942e-42 0)
(-2.8153e-42 -1.05042e-42 0)
(-5.64653e-41 -2.08992e-41 0)
(-8.66804e-40 -4.14635e-40 0)
(-1.55458e-38 -6.48487e-39 0)
(-1.87942e-37 -1.18747e-37 0)
(-3.04019e-36 -1.51722e-36 0)
(-2.36373e-35 -2.58413e-35 0)
(-3.25225e-34 -2.37079e-34 0)
(-1.71876e-36 -2.26378e-35 0)
(4.23668e-36 -4.56519e-36 0)
(4.83476e-37 -3.53768e-36 0)
(2.19933e-37 -2.65601e-37 0)
(1.71684e-38 -3.15135e-38 0)
(2.10276e-39 -1.96754e-39 0)
(1.3751e-40 -1.57148e-40 0)
(1.12304e-41 -8.85596e-42 0)
(6.50219e-43 -6.48532e-43 0)
(3.39886e-44 -1.68168e-43 0)
(-1.4643e-44 7.32728e-44 0)
(6.87007e-45 2.08459e-43 0)
(1.68567e-44 -6.28871e-44 0)
(-6.08417e-45 -1.37771e-43 0)
(-1.02944e-44 6.39071e-44 0)
(2.79254e-45 7.49623e-44 0)
(3.6267e-45 6.86424e-45 0)
(3.38984e-46 9.49959e-46 0)
(4.73888e-47 6.80389e-47 0)
(3.44017e-48 5.83385e-48 0)
(2.96122e-49 3.54956e-49 0)
(1.81704e-50 2.34148e-50 0)
(1.20008e-51 1.25211e-51 0)
(6.80481e-53 6.57696e-53 0)
(6.82026e-53 -6.59289e-53 0)
(1.20346e-51 -1.25526e-51 0)
(1.82311e-50 -2.34806e-50 0)
(2.97249e-49 -3.56141e-49 0)
(3.45691e-48 -5.85608e-48 0)
(4.76606e-47 -6.83723e-47 0)
(3.41974e-46 -9.55489e-46 0)
(3.66683e-45 -6.92773e-45 0)
(2.99728e-45 -7.58771e-44 0)
(-9.01369e-45 -7.0582e-44 0)
(-4.82673e-44 5.15872e-44 0)
(-8.82943e-43 -3.0316e-43 0)
(-1.61647e-41 -8.32903e-42 0)
(-3.20441e-40 -1.53793e-40 0)
(-5.00685e-39 -3.15534e-39 0)
(-9.12825e-38 -5.02542e-38 0)
(-1.14967e-36 -9.73388e-37 0)
(-1.91446e-35 -1.3033e-35 0)
(-1.63569e-34 -2.47223e-34 0)
(-2.30049e-33 -2.58968e-33 0)
(3.27388e-35 -3.09098e-34 0)
(8.8158e-35 -4.07545e-35 0)
(8.91568e-36 -2.75003e-35 0)
(3.2864e-36 -1.99758e-36 0)
(2.36901e-37 -2.13053e-37 0)
(2.80455e-38 -1.28705e-38 0)
(1.75102e-39 -9.78432e-40 0)
(1.408e-40 -5.37229e-41 0)
(7.88e-42 -3.35922e-42 0)
(5.04559e-43 -1.75686e-43 0)
(2.48704e-44 -5.62204e-45 0)
(1.71848e-45 9.34337e-45 0)
(8.63032e-46 -2.9605e-45 0)
(-2.87521e-46 -6.45226e-45 0)
(-4.89574e-46 2.98969e-45 0)
(1.31005e-46 3.51492e-45 0)
(1.70967e-46 3.27259e-46 0)
(1.60774e-47 4.59929e-47 0)
(2.2529e-48 3.34012e-48 0)
(1.64144e-49 2.89016e-49 0)
(1.41135e-50 1.77616e-50 0)
(8.66851e-52 1.17773e-51 0)
(5.70699e-53 6.33989e-53 0)
(3.23113e-54 3.33812e-54 0)
(3.23584e-54 -3.34623e-54 0)
(5.71483e-53 -6.35591e-53 0)
(8.67366e-52 -1.18106e-51 0)
(1.4099e-50 -1.78211e-50 0)
(1.63096e-49 -2.90119e-49 0)
(2.21597e-48 -3.35639e-48 0)
(1.49671e-47 -4.6256e-47 0)
(1.41191e-46 -3.30109e-46 0)
(-5.88918e-46 -3.55271e-45 0)
(-1.76617e-44 -3.16082e-45 0)
(-3.6126e-43 5.72571e-45 0)
(-7.94475e-42 5.37723e-44 0)
(-1.46844e-40 1.02022e-42 0)
(-3.0124e-39 1.77116e-41 0)
(-4.79238e-38 2.75011e-40 0)
(-9.19671e-37 8.22909e-40 0)
(-1.1921e-35 -1.61704e-37 0)
(-2.15668e-34 -1.04927e-35 0)
(-1.94405e-33 -4.16116e-34 0)
(-3.20271e-32 -1.16708e-32 0)
(2.11027e-33 -2.26732e-33 0)
(3.19398e-33 -6.01489e-34 0)
(2.20223e-34 -5.15526e-34 0)
(3.65712e-35 -3.27018e-35 0)
(2.36494e-36 -3.4524e-36 0)
(2.37484e-37 -1.9537e-37 0)
(1.41942e-38 -1.47569e-38 0)
(1.07459e-39 -7.78983e-40 0)
(5.89703e-41 -4.83859e-41 0)
(3.68183e-42 -2.37601e-42 0)
(1.85625e-43 -1.27447e-43 0)
(1.00332e-44 -5.39848e-45 0)
(4.95186e-46 -4.04942e-46 0)
(1.17149e-47 -2.90373e-46 0)
(-1.69934e-47 1.28502e-46 0)
(4.81832e-48 1.51847e-46 0)
(6.2608e-48 1.42287e-47 0)
(5.95798e-49 1.9935e-48 0)
(8.40372e-50 1.45177e-49 0)
(6.17793e-51 1.24979e-50 0)
(5.32825e-52 7.6784e-52 0)
(3.29145e-53 5.05999e-53 0)
(2.16855e-54 2.71685e-54 0)
(1.23167e-55 1.42111e-55 0)
(1.24089e-55 -1.42153e-55 0)
(2.19478e-54 -2.71465e-54 0)
(3.36085e-53 -5.04684e-53 0)
(5.51454e-52 -7.62452e-52 0)
(6.65684e-51 -1.23188e-50 0)
(9.64605e-50 -1.39736e-49 0)
(9.00094e-49 -1.84047e-48 0)
(1.37553e-47 -1.02203e-47 0)
(1.75905e-46 -5.01693e-47 0)
(3.92778e-45 2.24907e-45 0)
(8.21629e-44 5.57841e-44 0)
(1.75799e-42 1.16412e-42 0)
(3.26416e-41 2.50449e-41 0)
(6.44941e-40 4.57498e-40 0)
(1.03557e-38 8.48167e-39 0)
(1.8883e-37 9.03893e-38 0)
(2.48686e-36 -7.51782e-37 0)
(4.18382e-35 -1.40059e-34 0)
(3.8817e-34 -6.63404e-33 0)
(5.69507e-33 -2.2689e-31 0)
(7.45848e-32 -4.50332e-32 0)
(8.07315e-32 -2.0513e-33 0)
(4.07498e-33 -6.27615e-35 0)
(6.78672e-34 -1.45582e-36 0)
(3.89345e-35 -1.90218e-38 0)
(3.8992e-36 1.41915e-40 0)
(2.1884e-37 3.76177e-41 0)
(1.6496e-38 2.11763e-42 0)
(8.70901e-40 1.21671e-43 0)
(5.41237e-41 5.53989e-45 0)
(2.65875e-42 2.75691e-46 0)
(1.42859e-43 2.71437e-47 0)
(6.51979e-45 -4.2234e-48 0)
(3.11118e-46 -1.03646e-47 0)
(1.25311e-47 4.80541e-48 0)
(7.56884e-49 5.66744e-48 0)
(2.64605e-49 5.37641e-49 0)
(2.40274e-50 7.5631e-50 0)
(3.28388e-51 5.55545e-51 0)
(2.40583e-52 4.78918e-52 0)
(2.05843e-53 2.9577e-53 0)
(1.26944e-54 1.94823e-54 0)
(8.31153e-56 1.04865e-55 0)
(4.941e-57 5.47441e-57 0)
(1.20479e-56 -5.50713e-57 0)
(3.05331e-55 -1.05718e-55 0)
(7.72385e-54 -1.97175e-54 0)
(2.0418e-52 -3.02016e-53 0)
(5.21727e-51 -4.95866e-52 0)
(1.35935e-49 -5.993e-51 0)
(3.35809e-48 -8.7139e-50 0)
(8.32469e-47 -8.2041e-49 0)
(1.91791e-45 -1.27501e-47 0)
(4.4403e-44 -1.66659e-46 0)
(9.31683e-43 -3.79815e-45 0)
(1.99955e-41 -7.901e-44 0)
(3.7436e-40 -1.72098e-42 0)
(7.42644e-39 -3.05674e-41 0)
(1.20687e-37 -5.41525e-40 0)
(2.21261e-36 -2.82913e-39 0)
(2.96991e-35 2.3979e-37 0)
(5.03981e-34 1.91158e-35 0)
(4.85854e-33 8.37276e-34 0)
(7.26805e-32 2.75841e-32 0)
(3.1706e-33 -4.45808e-32 0)
(2.65877e-33 -1.56434e-33 0)
(1.9132e-34 4.47475e-34 0)
(3.29421e-35 3.10654e-35 0)
(2.17354e-36 3.42484e-36 0)
(2.21904e-37 1.95151e-37 0)
(1.34e-38 1.47732e-38 0)
(1.02319e-39 7.80098e-40 0)
(5.64907e-41 4.84526e-41 0)
(3.54532e-42 2.37881e-42 0)
(1.79482e-43 1.27748e-43 0)
(9.72194e-45 5.82722e-45 0)
(4.53344e-46 2.78174e-46 0)
(2.18008e-47 1.14102e-47 0)
(9.17032e-49 6.97765e-49 0)
(4.74263e-50 2.40376e-49 0)
(1.00984e-50 2.17804e-50 0)
(8.81525e-52 2.9672e-51 0)
(1.17058e-52 2.17184e-52 0)
(8.57823e-54 1.85634e-53 0)
(7.30133e-55 1.1443e-54 0)
(4.51037e-56 7.48705e-56 0)
(2.94224e-57 4.01739e-57 0)
(1.66968e-58 1.99063e-58 0)
(1.77223e-58 -5.09578e-58 0)
(3.05671e-57 -1.33546e-56 0)
(4.56598e-56 -3.58205e-55 0)
(5.47827e-55 -9.38088e-54 0)
(1.93885e-54 -2.53615e-52 0)
(-2.28604e-52 -6.59141e-51 0)
(-8.53178e-51 -1.73523e-49 0)
(-3.52309e-49 -4.30786e-48 0)
(-8.40332e-48 -1.0742e-46 0)
(-2.80419e-46 -2.47433e-45 0)
(-5.68014e-45 -5.76127e-44 0)
(-1.71566e-43 -1.2047e-42 0)
(-2.98934e-42 -2.59216e-41 0)
(-8.37829e-41 -4.72335e-40 0)
(-1.22182e-39 -8.69448e-39 0)
(-3.24204e-38 -8.7572e-38 0)
(-3.74568e-37 1.11914e-36 0)
(-9.63262e-36 1.61822e-34 0)
(-7.39595e-35 7.54532e-33 0)
(-1.86082e-33 2.56073e-31 0)
(6.03816e-34 -1.79299e-33 0)
(-1.99708e-34 -9.047e-35 0)
(-6.82742e-36 2.00994e-35 0)
(1.3027e-36 1.70228e-36 0)
(1.31501e-37 1.94199e-37 0)
(1.94567e-38 1.19504e-38 0)
(1.31132e-39 9.17296e-40 0)
(1.12337e-40 5.06701e-41 0)
(6.50369e-42 3.17838e-42 0)
(4.292e-43 1.60828e-43 0)
(2.22437e-44 8.70703e-45 0)
(1.23454e-45 4.05851e-46 0)
(5.82249e-47 1.95174e-47 0)
(2.83359e-48 8.28104e-49 0)
(1.21968e-49 4.31927e-50 0)
(5.59998e-51 9.17243e-51 0)
(5.15496e-52 7.99619e-52 0)
(3.76569e-53 1.05857e-52 0)
(4.37976e-54 7.75038e-54 0)
(3.12638e-55 6.58925e-55 0)
(2.60214e-56 4.06845e-56 0)
(1.59673e-57 2.65215e-57 0)
(1.00171e-58 1.42328e-58 0)
(-9.12968e-59 7.53377e-60 0)
(-3.01336e-57 -1.35723e-60 0)
(-9.21333e-56 4.75542e-59 0)
(-2.68474e-54 3.32477e-57 0)
(-7.72134e-53 1.35865e-55 0)
(-2.09583e-51 4.57327e-54 0)
(-5.65763e-50 1.35623e-52 0)
(-1.42081e-48 3.88819e-51 0)
(-3.59095e-47 9.99538e-50 0)
(-8.26595e-46 2.62506e-48 0)
(-1.95107e-44 6.04986e-47 0)
(-4.06269e-43 1.48403e-45 0)
(-8.93822e-42 3.07271e-44 0)
(-1.65132e-40 7.16157e-43 0)
(-3.38543e-39 1.38424e-41 0)
(-5.38293e-38 3.55124e-40 0)
(-1.03223e-36 9.34197e-39 0)
(-1.337e-35 3.6798e-37 0)
(-2.41676e-34 1.41258e-35 0)
(-2.17613e-33 5.07004e-34 0)
(-3.58236e-32 1.34596e-32 0)
(2.88062e-35 -2.84667e-34 0)
(-1.25592e-35 -1.38148e-35 0)
(-6.53748e-37 8.75872e-37 0)
(2.79164e-38 1.10358e-37 0)
(4.84262e-39 1.73675e-38 0)
(8.77847e-40 1.17888e-39 0)
(6.43992e-41 1.01101e-40 0)
(5.75618e-42 5.85174e-42 0)
(3.4765e-43 3.85925e-43 0)
(2.33783e-44 1.99923e-44 0)
(1.24372e-45 1.10909e-45 0)
(6.97881e-47 5.2292e-47 0)
(3.34993e-48 2.54439e-48 0)
(1.64239e-49 1.09759e-49 0)
(7.17934e-51 5.05269e-51 0)
(3.24351e-52 4.66761e-52 0)
(2.26694e-53 3.4111e-53 0)
(1.47446e-54 3.96013e-54 0)
(1.52978e-55 2.82482e-55 0)
(1.06569e-56 2.34868e-56 0)
(8.67906e-58 1.44059e-57 0)
(5.30044e-59 9.3019e-59 0)
(3.61587e-60 5.19774e-60 0)
(7.31074e-60 7.8151e-60 0)
(2.21668e-58 2.44478e-58 0)
(6.75177e-57 7.60252e-57 0)
(1.9655e-55 2.32187e-55 0)
(5.62506e-54 6.76207e-54 0)
(1.52467e-52 1.94304e-52 0)
(4.08618e-51 5.27216e-51 0)
(1.02368e-49 1.4218e-49 0)
(2.55971e-48 3.56952e-48 0)
(5.86814e-47 9.01037e-47 0)
(1.36345e-45 2.07349e-45 0)
(2.82024e-44 4.88615e-44 0)
(6.06194e-43 1.01714e-42 0)
(1.10775e-41 2.23289e-41 0)
(2.19275e-40 4.12474e-40 0)
(3.42162e-39 8.4359e-39 0)
(6.21032e-38 1.34456e-37 0)
(7.76563e-37 2.58388e-36 0)
(1.28112e-35 3.42807e-35 0)
(1.07296e-34 6.35181e-34 0)
(1.49294e-33 6.36165e-33 0)
(2.7685e-36 -1.33644e-35 0)
(-1.35979e-36 -7.521e-37 0)
(-7.51041e-38 1.87359e-38 0)
(-2.91246e-39 4.19566e-39 0)
(6.44403e-41 7.88683e-40 0)
(4.22478e-41 5.80396e-41 0)
(3.64914e-42 5.18578e-42 0)
(3.67915e-43 3.1304e-43 0)
(2.33718e-44 2.10351e-44 0)
(1.64309e-45 1.11857e-45 0)
(8.94506e-47 6.27371e-47 0)
(5.1222e-48 3.01056e-48 0)
(2.4862e-49 1.47567e-49 0)
(1.23019e-50 6.45786e-51 0)
(5.41374e-52 2.92178e-52 0)
(2.41586e-53 2.04888e-53 0)
(1.29115e-54 1.33407e-54 0)
(7.0367e-56 1.38284e-55 0)
(5.82147e-57 9.6281e-57 0)
(3.78494e-58 7.83384e-58 0)
(2.92364e-59 4.78147e-59 0)
(1.91626e-60 3.06937e-60 0)
(5.5042e-60 4.28715e-61 0)
(1.74552e-58 8.78795e-60 0)
(5.42461e-57 2.84282e-58 0)
(1.65562e-55 8.83886e-57 0)
(4.8197e-54 2.69973e-55 0)
(1.38407e-52 7.86295e-54 0)
(3.7542e-51 2.26011e-52 0)
(1.01174e-49 6.13366e-51 0)
(2.53919e-48 1.65493e-49 0)
(6.40407e-47 4.15595e-48 0)
(1.47315e-45 1.04973e-46 0)
(3.46756e-44 2.41647e-45 0)
(7.21481e-43 5.69929e-44 0)
(1.58139e-41 1.18705e-42 0)
(2.91874e-40 2.61039e-41 0)
(5.95297e-39 4.83746e-40 0)
(9.45285e-38 9.99617e-39 0)
(1.7993e-36 1.65212e-37 0)
(2.32572e-35 3.4587e-36 0)
(4.15718e-34 5.99954e-35 0)
(3.72872e-33 1.48263e-33 0)
(6.02231e-32 2.75555e-32 0)
(1.30544e-37 -1.25991e-36 0)
(-6.49726e-38 -7.03581e-38 0)
(-3.94166e-39 -2.69852e-39 0)
(-2.34833e-40 5.77803e-41 0)
(-3.5752e-42 3.82329e-41 0)
(1.43248e-42 3.29879e-42 0)
(1.46186e-43 3.31943e-43 0)
(1.5994e-44 2.10694e-44 0)
(1.06545e-45 1.47992e-45 0)
(7.68947e-47 8.05295e-47 0)
(4.29252e-48 4.60919e-48 0)
(2.48971e-49 2.23653e-49 0)
(1.22725e-50 1.10637e-50 0)
(6.11709e-52 4.87067e-52 0)
(2.72074e-53 2.17468e-53 0)
(1.2138e-54 1.16461e-54 0)
(5.91149e-56 6.35499e-56 0)
(2.95339e-57 5.25863e-57 0)
(2.08995e-58 3.41837e-58 0)
(1.27835e-59 2.63822e-59 0)
(9.45579e-61 1.58141e-60 0)
(3.56667e-61 9.55313e-62 0)
(9.96938e-60 -1.33252e-61 0)
(3.22682e-58 -4.57675e-60 0)
(1.00322e-56 -1.48116e-58 0)
(3.06385e-55 -4.60335e-57 0)
(8.92273e-54 -1.40498e-55 0)
(2.56431e-52 -4.09019e-54 0)
(6.95844e-51 -1.17459e-52 0)
(1.87703e-49 -3.18614e-51 0)
(4.71295e-48 -8.58653e-50 0)
(1.19005e-46 -2.15512e-48 0)
(2.73881e-45 -5.43514e-47 0)
(6.45644e-44 -1.2501e-45 0)
(1.34406e-42 -2.93965e-44 0)
(2.95186e-41 -6.08945e-43 0)
(5.45129e-40 -1.31111e-41 0)
(1.11486e-38 -2.22494e-40 0)
(1.77145e-37 -3.1992e-39 0)
(3.38518e-36 4.11599e-38 0)
(4.37914e-35 5.45051e-36 0)
(7.87651e-34 3.2328e-34 0)
(7.07506e-33 1.3539e-32 0)
(1.15642e-31 4.33408e-31 0)
(9.20844e-39 -5.91715e-38 0)
(-4.5729e-39 -3.58786e-39 0)
(-2.78527e-40 -2.11059e-40 0)
(-2.48168e-41 -3.10361e-42 0)
(-9.14353e-43 1.30274e-42 0)
(1.99394e-44 1.32387e-43 0)
(5.07166e-45 1.44414e-44 0)
(7.17054e-46 9.61027e-46 0)
(5.18672e-47 6.92898e-47 0)
(3.96445e-48 3.86602e-48 0)
(2.27971e-49 2.24123e-49 0)
(1.3523e-50 1.10443e-50 0)
(6.75525e-52 5.50337e-52 0)
(3.39937e-53 2.44815e-53 0)
(1.5212e-54 1.09247e-54 0)
(6.78524e-56 5.32778e-56 0)
(3.06313e-57 2.66457e-57 0)
(1.40692e-58 1.88681e-58 0)
(8.25304e-60 1.15414e-59 0)
(4.58002e-61 8.45355e-61 0)
(3.09648e-62 4.93142e-62 0)
(1.1211e-62 -1.27584e-62 0)
(3.13137e-61 -5.42425e-61 0)
(1.01376e-59 -1.79359e-59 0)
(3.15225e-58 -5.80768e-58 0)
(9.62944e-57 -1.80573e-56 0)
(2.80478e-55 -5.51509e-55 0)
(8.06306e-54 -1.60626e-53 0)
(2.18832e-52 -4.61662e-52 0)
(5.9051e-51 -1.25287e-50 0)
(1.48294e-49 -3.37992e-49 0)
(3.74615e-48 -8.48741e-48 0)
(8.62308e-47 -2.14331e-46 0)
(2.03394e-45 -4.93287e-45 0)
(4.23492e-44 -1.16248e-43 0)
(9.3077e-43 -2.41515e-42 0)
(1.71923e-41 -5.26015e-41 0)
(3.51958e-40 -9.34305e-40 0)
(5.59366e-39 -1.65478e-38 0)
(1.07047e-37 -8.61832e-38 0)
(1.38513e-36 7.34845e-36 0)
(2.49699e-35 5.8525e-34 0)
(2.24392e-34 2.56319e-32 0)
(3.68356e-33 8.44401e-31 0)
(4.14691e-40 -4.14616e-39 0)
(-2.05258e-40 -2.51686e-40 0)
(-1.32019e-41 -2.2272e-41 0)
(-1.32973e-42 -8.15478e-43 0)
(-5.83833e-44 1.87307e-44 0)
(-8.38446e-46 4.61255e-45 0)
(1.26694e-46 6.48302e-46 0)
(2.53418e-47 4.68238e-47 0)
(2.00016e-48 3.5746e-48 0)
(1.60339e-49 2.05434e-49 0)
(9.50996e-51 1.21795e-50 0)
(5.74248e-52 6.08213e-52 0)
(2.91499e-53 3.05973e-53 0)
(1.47941e-54 1.36919e-54 0)
(6.68268e-56 6.10752e-56 0)
(2.98934e-57 2.75918e-57 0)
(1.31159e-58 1.2682e-58 0)
(5.7916e-60 7.44527e-60 0)
(3.03793e-61 4.13309e-61 0)
(1.54051e-62 2.76858e-62 0)
(-7.81386e-63 1.43422e-63 0)
(-3.00775e-61 -4.71987e-63 0)
(-9.9438e-60 -1.64858e-61 0)
(-3.21968e-58 -5.44826e-60 0)
(-1.00101e-56 -1.76337e-58 0)
(-3.05715e-55 -5.48106e-57 0)
(-8.90333e-54 -1.67314e-55 0)
(-2.55878e-52 -4.87143e-54 0)
(-6.9435e-51 -1.39919e-52 0)
(-1.87304e-49 -3.79583e-51 0)
(-4.70298e-48 -1.02318e-49 0)
(-1.18756e-46 -2.56833e-48 0)
(-2.73311e-45 -6.47887e-47 0)
(-6.4432e-44 -1.49035e-45 0)
(-1.34132e-42 -3.50601e-44 0)
(-2.94594e-41 -7.26706e-43 0)
(-5.44041e-40 -1.56846e-41 0)
(-1.11269e-38 -2.68891e-40 0)
(-1.76802e-37 -4.07065e-39 0)
(-3.37886e-36 3.26891e-38 0)
(-4.37097e-35 5.56313e-36 0)
(-7.86276e-34 3.39764e-34 0)
(-7.06275e-33 1.43026e-32 0)
(-1.15469e-31 4.59399e-31 0)
(2.38034e-41 -1.86273e-40 0)
(-1.17239e-41 -1.19296e-41 0)
(-7.57461e-43 -1.19501e-42 0)
(-8.81829e-44 -5.22837e-44 0)
(-4.35875e-45 -7.239e-46 0)
(-1.79795e-46 1.16032e-46 0)
(-1.61458e-48 2.29405e-47 0)
(7.29014e-49 1.80704e-48 0)
(7.24334e-50 1.44654e-49 0)
(6.48064e-51 8.57416e-51 0)
(4.03448e-52 5.17446e-52 0)
(2.51579e-53 2.62576e-53 0)
(1.30119e-54 1.33221e-54 0)
(6.68673e-56 6.01727e-56 0)
(3.04465e-57 2.69158e-57 0)
(1.36653e-58 1.18144e-58 0)
(5.86239e-60 5.21846e-60 0)
(2.50596e-61 2.73964e-61 0)
(1.18546e-62 1.49367e-62 0)
(3.94948e-64 9.56516e-64 0)
(-5.03903e-63 2.73253e-64 0)
(-1.73545e-61 7.52988e-63 0)
(-5.73482e-60 2.57866e-61 0)
(-1.85595e-58 8.52477e-60 0)
(-5.76836e-57 2.76083e-58 0)
(-1.76066e-55 8.58481e-57 0)
(-5.12575e-54 2.6226e-55 0)
(-1.47206e-52 7.63919e-54 0)
(-3.99305e-51 2.19628e-52 0)
(-1.07618e-49 5.96116e-51 0)
(-2.70102e-48 1.60881e-49 0)
(-6.81265e-47 4.04067e-48 0)
(-1.56717e-45 1.02095e-46 0)
(-3.68911e-44 2.35054e-45 0)
(-7.67578e-43 5.54612e-44 0)
(-1.68253e-41 1.15533e-42 0)
(-3.10531e-40 2.54219e-41 0)
(-6.33382e-39 4.71304e-40 0)
(-1.00567e-37 9.75445e-39 0)
(-1.91435e-36 1.6178e-37 0)
(-2.4739e-35 3.41465e-36 0)
(-4.42258e-34 6.03803e-35 0)
(-3.96523e-33 1.51602e-33 0)
(-6.40749e-32 2.87578e-32 0)
(-6.41694e-36 4.59974e-31 0)
(8.627e-43 -1.19911e-41 0)
(-4.23712e-43 -7.74739e-43 0)
(-2.84269e-44 -9.02779e-44 0)
(-3.47153e-45 -4.488e-45 0)
(-1.82662e-46 -1.88884e-46 0)
(-9.08575e-48 -2.04291e-48 0)
(-2.22093e-49 7.10436e-49 0)
(1.46744e-50 7.19546e-50 0)
(2.00489e-51 6.48449e-51 0)
(1.99048e-52 4.05093e-52 0)
(1.29588e-53 2.53063e-53 0)
(8.28981e-55 1.31073e-54 0)
(4.36602e-56 6.74011e-56 0)
(2.26705e-57 3.07126e-57 0)
(1.04187e-58 1.37828e-58 0)
(4.69677e-60 5.88469e-60 0)
(2.00891e-61 2.1848e-61 0)
(1.0313e-62 1.15795e-62 0)
(4.72933e-64 3.19033e-62 0)
(-8.86433e-64 3.00435e-63 0)
(-5.10635e-64 5.4374e-64 0)
(-1.45805e-62 4.55154e-63 0)
(-4.80863e-61 1.54812e-61 0)
(-1.55177e-59 5.11554e-60 0)
(-4.81574e-58 1.65554e-58 0)
(-1.46424e-56 5.14544e-57 0)
(-4.25472e-55 1.57057e-55 0)
(-1.21559e-53 4.57244e-54 0)
(-3.28948e-52 1.31323e-52 0)
(-8.80377e-51 3.56242e-51 0)
(-2.20289e-49 9.60221e-50 0)
(-5.50357e-48 2.41023e-48 0)
(-1.26108e-46 6.0802e-47 0)
(-2.92976e-45 1.39892e-45 0)
(-6.06413e-44 3.29386e-44 0)
(-1.30475e-42 6.85537e-43 0)
(-2.3906e-41 1.5033e-41 0)
(-4.7449e-40 2.77635e-40 0)
(-7.45184e-39 5.66963e-39 0)
(-1.35991e-37 9.0333e-38 0)
(-1.72529e-36 1.73199e-36 0)
(-2.8721e-35 2.29541e-35 0)
(-2.48163e-34 4.23667e-34 0)
(-3.46646e-33 4.22982e-33 0)
(-3.89462e-37 6.67745e-32 0)
(-2.95765e-42 -3.19669e-41 0)
(1.45188e-42 -2.05694e-42 0)
(9.73621e-44 -2.35195e-43 0)
(1.18912e-44 -1.14868e-44 0)
(6.24939e-46 -4.41128e-46 0)
(3.08439e-47 -1.18417e-48 0)
(7.34986e-49 2.24956e-48 0)
(-5.31015e-50 2.12646e-49 0)
(-7.06048e-51 1.86381e-50 0)
(-6.9573e-52 1.15014e-51 0)
(-4.51679e-53 7.1297e-53 0)
(-2.88334e-54 3.67431e-54 0)
(-1.51657e-55 1.88301e-55 0)
(-7.86441e-57 8.5578e-57 0)
(-3.61083e-58 3.81623e-58 0)
(-1.62356e-59 1.54914e-59 0)
(-6.62835e-61 -5.45191e-61 0)
(4.33035e-62 2.25792e-62 0)
(2.32739e-63 1.16109e-60 0)
(-3.44466e-62 1.09602e-61 0)
(-3.32005e-63 1.54008e-62 0)
(-2.14787e-63 1.51078e-63 0)
(-5.63365e-62 1.31204e-62 0)
(-1.83173e-60 4.29976e-61 0)
(-5.72895e-59 1.38753e-59 0)
(-1.75462e-57 4.30601e-58 0)
(-5.13334e-56 1.30927e-56 0)
(-1.47582e-54 3.80449e-55 0)
(-4.01593e-53 1.08701e-53 0)
(-1.08015e-51 2.94166e-52 0)
(-2.71318e-50 7.87351e-51 0)
(-6.80068e-49 1.9703e-49 0)
(-1.56045e-47 4.9231e-48 0)
(-3.62867e-46 1.12824e-46 0)
(-7.49223e-45 2.62166e-45 0)
(-1.60805e-43 5.42777e-44 0)
(-2.91978e-42 1.16818e-42 0)
(-5.75008e-41 2.1414e-41 0)
(-8.83608e-40 4.25307e-40 0)
(-1.5856e-38 6.69039e-39 0)
(-1.91368e-37 1.22454e-37 0)
(-3.09173e-36 1.56857e-36 0)
(-2.38132e-35 2.64393e-35 0)
(-3.28193e-34 2.38057e-34 0)
(-4.15039e-38 3.30848e-33 0)
(-7.04645e-41 -5.59274e-40 0)
(3.47079e-41 -3.57703e-41 0)
(2.24159e-42 -3.56017e-42 0)
(2.57299e-43 -1.54367e-43 0)
(1.25773e-44 -1.80383e-45 0)
(4.83502e-46 3.75352e-46 0)
(1.32947e-48 7.12658e-47 0)