/*--------------------------------*- C++ -*----------------------------------*\
| =========                 |                                                 |
| \\      /  F ield         | OpenFOAM: The Open Source CFD Toolbox           |
|  \\    /   O peration     | Version:  2.4.0                                 |
|   \\  /    A nd           | Web:      www.OpenFOAM.org                      |
|    \\/     M anipulation  |                                                 |
\*---------------------------------------------------------------------------*/
FoamFile
{
    version     2.0;
    format      ascii;
    class       volVectorField;
    location    "0.75";
    object      U;
}
// * * * * * * * * * * * * * * * * * * * * * * * * * * * * * * * * * * * * * //

dimensions      [0 1 -1 0 0 0 0];

internalField   nonuniform List<vector> 
1935
(
(1.1196e-35 3.54945e-36 0)
(9.4951e-35 2.32607e-35 0)
(4.64932e-34 1.54448e-34 0)
(4.30088e-33 1.14414e-34 0)
(3.92108e-33 -2.96481e-34 0)
(-3.91899e-33 -2.9601e-34 0)
(-4.28749e-33 1.18777e-34 0)
(-3.57952e-34 1.81664e-34 0)
(4.66838e-34 2.01522e-34 0)
(4.76769e-33 2.77168e-34 0)
(8.32871e-33 -1.53967e-34 0)
(5.73409e-34 -4.10895e-34 0)
(-3.34728e-33 1.14413e-34 0)
(4.02952e-33 2.68852e-34 0)
(4.31442e-33 -1.18837e-34 0)
(4.66838e-34 -1.54989e-34 0)
(9.53242e-35 -2.33332e-35 0)
(1.16888e-35 -3.89331e-36 0)
(1.68055e-36 -4.78522e-37 0)
(1.94923e-37 -5.9795e-38 0)
(2.33048e-38 -6.52347e-39 0)
(2.47547e-39 -7.01315e-40 0)
(2.60242e-40 -6.93331e-41 0)
(2.76879e-41 -6.07195e-42 0)
(2.78664e-41 6.12485e-42 0)
(2.62418e-40 6.98856e-41 0)
(2.49831e-39 7.07383e-40 0)
(2.35391e-38 6.58607e-39 0)
(1.97134e-37 6.04257e-38 0)
(1.70133e-36 4.84331e-37 0)
(1.18599e-35 3.94644e-36 0)
(9.68048e-35 2.37505e-35 0)
(4.76799e-34 1.58391e-34 0)
(4.39766e-33 1.38157e-34 0)
(4.39766e-33 -1.38157e-34 0)
(4.76799e-34 -1.58391e-34 0)
(9.68048e-35 -2.37505e-35 0)
(1.18599e-35 -3.94644e-36 0)
(1.70133e-36 -4.84331e-37 0)
(1.97131e-37 -6.04297e-38 0)
(2.35244e-38 -6.61557e-39 0)
(2.41157e-39 -8.92728e-40 0)
(-8.47327e-41 -1.16989e-39 0)
(-1.31821e-39 -4.44812e-39 0)
(4.02053e-36 -1.6046e-36 0)
(3.04321e-35 -1.23573e-35 0)
(1.44492e-34 -8.19508e-35 0)
(8.57749e-34 -6.05167e-35 0)
(7.40086e-34 1.57037e-34 0)
(-7.39273e-34 1.56807e-34 0)
(-8.52767e-34 -6.2717e-35 0)
(-1.09587e-34 -9.63218e-35 0)
(1.4523e-34 -1.0696e-34 0)
(1.00297e-33 -1.46662e-34 0)
(1.63265e-33 8.17172e-35 0)
(1.79969e-34 2.17554e-34 0)
(-5.59958e-34 -6.05163e-35 0)
(7.75548e-34 -1.42464e-34 0)
(8.62791e-34 6.27447e-35 0)
(1.4523e-34 8.22135e-35 0)
(3.05913e-35 1.24042e-35 0)
(4.32956e-36 1.97093e-36 0)
(6.43778e-37 2.32963e-37 0)
(7.96306e-38 2.77475e-38 0)
(9.77193e-39 2.90986e-39 0)
(1.0755e-39 3.01462e-40 0)
(1.15295e-40 2.88916e-41 0)
(1.25626e-41 2.46741e-42 0)
(1.26458e-41 -2.48792e-42 0)
(1.16294e-40 -2.91108e-41 0)
(1.08583e-39 -3.03928e-40 0)
(9.87547e-39 -2.93602e-39 0)
(8.05886e-38 -2.80196e-38 0)
(6.52452e-37 -2.35565e-37 0)
(4.39919e-36 -1.99571e-36 0)
(3.11533e-35 -1.26088e-35 0)
(1.48896e-34 -8.39456e-35 0)
(8.88892e-34 -7.31223e-35 0)
(8.88892e-34 7.31223e-35 0)
(1.48896e-34 8.39456e-35 0)
(3.11533e-35 1.26088e-35 0)
(4.39919e-36 1.99571e-36 0)
(6.52449e-37 2.35562e-37 0)
(8.05662e-38 2.79903e-38 0)
(9.73359e-39 2.71296e-39 0)
(2.42629e-40 -1.12824e-39 0)
(-3.28701e-39 -8.63973e-39 0)
(-1.33186e-38 -3.60136e-38 0)
(1.13981e-36 -6.08946e-37 0)
(7.23151e-36 -4.43079e-36 0)
(2.62294e-35 -2.34807e-35 0)
(1.21093e-34 -1.58558e-35 0)
(1.01131e-34 4.46196e-35 0)
(-1.00881e-34 4.4524e-35 0)
(-1.19719e-34 -1.67051e-35 0)
(-1.77839e-35 -2.86819e-35 0)
(2.64536e-35 -3.2462e-35 0)
(1.47543e-34 -4.09496e-35 0)
(2.30638e-34 2.33831e-35 0)
(3.48439e-35 6.04751e-35 0)
(-6.62356e-35 -1.58555e-35 0)
(1.09742e-34 -3.93343e-35 0)
(1.22487e-34 1.67171e-35 0)
(2.64536e-35 2.35902e-35 0)
(7.27266e-36 4.44936e-36 0)
(1.17683e-36 7.5409e-37 0)
(1.94861e-37 9.6952e-38 0)
(2.58289e-38 1.20067e-38 0)
(3.3449e-39 1.31858e-39 0)
(3.82905e-40 1.40467e-40 0)
(4.23501e-41 1.38756e-41 0)
(4.73687e-42 1.20796e-42 0)
(4.76926e-42 -1.21842e-42 0)
(4.27332e-41 -1.39853e-41 0)
(3.86786e-40 -1.41674e-40 0)
(3.38282e-39 -1.33111e-39 0)
(2.61686e-38 -1.21331e-38 0)
(1.97815e-37 -9.81275e-38 0)
(1.19923e-36 -7.64751e-37 0)
(7.44092e-36 -4.53403e-36 0)
(2.74288e-35 -2.42447e-35 0)
(1.28531e-34 -2.03882e-35 0)
(1.28531e-34 2.03882e-35 0)
(2.74288e-35 2.42447e-35 0)
(7.44092e-36 4.53403e-36 0)
(1.19923e-36 7.64748e-37 0)
(1.97793e-37 9.81023e-38 0)
(2.59998e-38 1.1928e-38 0)
(2.30331e-39 -2.48269e-40 0)
(-6.11036e-39 -1.01277e-38 0)
(-2.65614e-38 -6.30912e-38 0)
(-1.05767e-37 -2.66937e-37 0)
(2.28121e-37 -1.96068e-37 0)
(1.24876e-36 -1.29219e-36 0)
(3.47684e-36 -6.33752e-36 0)
(1.3063e-35 -4.14041e-36 0)
(1.06487e-35 1.2037e-35 0)
(-1.0595e-35 1.20051e-35 0)
(-1.2791e-35 -4.40959e-36 0)
(-1.99167e-36 -7.86995e-36 0)
(3.52444e-36 -8.95739e-36 0)
(1.65864e-35 -1.09868e-35 0)
(2.51889e-35 6.30342e-36 0)
(4.99679e-36 1.61771e-35 0)
(-5.64031e-36 -4.13998e-36 0)
(1.21681e-35 -1.04754e-35 0)
(1.33387e-35 4.41382e-36 0)
(3.52444e-36 6.37299e-36 0)
(1.25601e-36 1.29697e-36 0)
(2.29705e-37 2.37704e-37 0)
(4.13553e-38 3.24572e-38 0)
(5.8096e-39 4.23759e-39 0)
(7.83312e-40 4.8504e-40 0)
(9.2608e-41 5.34653e-41 0)
(1.04896e-41 5.42741e-42 0)
(1.19888e-42 4.82289e-43 0)
(1.20729e-42 -4.86616e-43 0)
(1.05878e-41 -5.47205e-42 0)
(9.3587e-41 -5.39472e-41 0)
(7.92681e-40 -4.89931e-40 0)
(5.89151e-39 -4.28553e-39 0)
(4.20438e-38 -3.28877e-38 0)
(2.3471e-37 -2.41445e-37 0)
(1.29137e-36 -1.32509e-36 0)
(3.71122e-36 -6.57726e-36 0)
(1.43533e-35 -5.46458e-36 0)
(1.43533e-35 5.46458e-36 0)
(3.71122e-36 6.57726e-36 0)
(1.29137e-36 1.32508e-36 0)
(2.34691e-37 2.41427e-37 0)
(4.18879e-38 3.27238e-38 0)
(4.694e-39 2.936e-39 0)
(-6.9572e-39 -1.00432e-38 0)
(-4.725e-38 -6.95034e-38 0)
(-1.97356e-37 -4.35576e-37 0)
(-7.97813e-37 -1.88464e-36 0)
(3.26892e-38 -8.42689e-38 0)
(2.0201e-37 -2.83705e-37 0)
(3.83618e-37 -1.23168e-36 0)
(1.02999e-36 -7.7302e-37 0)
(8.13031e-37 2.31489e-36 0)
(-8.02268e-37 2.30807e-36 0)
(-9.79995e-37 -8.29394e-37 0)
(-1.41702e-37 -1.539e-36 0)
(3.91172e-37 -1.76132e-36 0)
(1.41977e-36 -2.10168e-36 0)
(2.08023e-36 1.21223e-36 0)
(6.28864e-37 3.08576e-36 0)
(-1.81556e-37 -7.70298e-37 0)
(1.05952e-36 -1.98983e-36 0)
(1.07836e-36 8.30384e-37 0)
(3.91172e-37 1.22818e-36 0)
(1.99706e-37 2.67705e-37 0)
(4.06898e-38 5.17927e-38 0)
(7.92879e-39 7.42416e-39 0)
(1.16864e-39 1.00592e-39 0)
(1.63382e-40 1.18873e-40 0)
(1.98431e-41 1.34247e-41 0)
(2.29544e-42 1.39154e-42 0)
(2.67162e-43 1.25509e-43 0)
(2.69077e-43 -1.26666e-43 0)
(2.31757e-42 -1.40332e-42 0)
(2.00606e-41 -1.35501e-41 0)
(1.65428e-40 -1.20125e-40 0)
(1.18614e-39 -1.01792e-39 0)
(8.07185e-39 -7.52933e-39 0)
(4.16904e-38 -5.2677e-38 0)
(2.06426e-37 -2.74097e-37 0)
(4.23604e-37 -1.27231e-36 0)
(1.23503e-36 -1.04428e-36 0)
(1.23503e-36 1.04428e-36 0)
(4.23603e-37 1.27231e-36 0)
(2.06412e-37 2.74086e-37 0)
(4.15651e-38 5.25703e-38 0)
(7.04293e-39 6.54847e-39 0)
(-6.82063e-39 -7.15625e-39 0)
(-5.24468e-38 -6.46913e-38 0)
(-3.27408e-37 -4.36288e-37 0)
(-1.39598e-36 -2.79564e-36 0)
(-5.76223e-36 -1.24537e-35 0)
(-6.1602e-38 -3.07933e-37 0)
(5.66415e-38 -1.73284e-37 0)
(4.94165e-38 -3.03899e-37 0)
(5.54547e-38 -1.54394e-37 0)
(3.53021e-38 4.12083e-37 0)
(-3.10697e-38 4.13939e-37 0)
(-3.86464e-38 -1.47304e-37 0)
(-1.51801e-39 -2.79248e-37 0)
(3.85505e-38 -3.2048e-37 0)
(8.50535e-38 -3.76551e-37 0)
(1.15001e-37 2.17474e-37 0)
(7.35584e-38 5.51603e-37 0)
(4.06874e-38 -1.35559e-37 0)
(6.98253e-38 -3.54521e-37 0)
(5.44965e-38 1.47425e-37 0)
(3.85491e-38 2.20736e-37 0)
(2.90281e-38 5.01117e-38 0)
(6.45662e-39 1.01695e-38 0)
(1.33611e-39 1.51423e-39 0)
(2.04675e-40 2.11986e-40 0)
(2.94439e-41 2.57142e-41 0)
(3.65716e-42 2.96575e-42 0)
(4.30476e-43 3.1275e-43 0)
(5.08908e-44 2.85689e-44 0)
(5.12626e-44 -2.88383e-44 0)
(4.34731e-43 -3.15465e-43 0)
(3.6985e-42 -2.9943e-42 0)
(2.98268e-41 -2.59951e-41 0)
(2.07893e-40 -2.14633e-40 0)
(1.36181e-39 -1.53691e-39 0)
(6.63099e-39 -1.03551e-38 0)
(3.01522e-38 -5.1408e-38 0)
(4.36105e-38 -2.2934e-37 0)
(7.66562e-38 -1.86941e-37 0)
(7.66555e-38 1.86941e-37 0)
(4.3602e-38 2.29334e-37 0)
(3.00702e-38 5.13483e-38 0)
(5.87854e-39 9.77447e-39 0)
(-4.89239e-39 -3.8745e-39 0)
(-4.92106e-38 -4.55882e-38 0)
(-3.30735e-37 -3.70564e-37 0)
(-2.10405e-36 -2.55791e-36 0)
(-9.22429e-36 -1.69062e-35 0)
(-3.89633e-35 -7.82847e-35 0)
(-4.42691e-37 -1.985e-36 0)
(2.26451e-37 -8.13212e-37 0)
(9.66546e-38 -5.93626e-37 0)
(6.09727e-38 -1.42968e-37 0)
(1.11964e-38 4.10716e-38 0)
(6.22063e-39 6.20603e-38 0)
(4.49069e-39 -2.36897e-38 0)
(1.71554e-39 -4.48677e-38 0)
(3.69258e-39 -5.15578e-38 0)
(8.45314e-40 -5.97135e-38 0)
(-7.44404e-40 3.45333e-38 0)
(8.6938e-39 8.72881e-38 0)
(1.17088e-38 -2.1135e-38 0)
(2.30472e-39 -5.59311e-38 0)
(-1.62238e-39 2.31765e-38 0)
(3.6839e-39 3.51111e-38 0)
(4.11353e-39 8.26307e-39 0)
(9.73909e-40 1.74103e-39 0)
(2.10925e-40 2.67592e-40 0)
(3.32712e-41 3.8453e-41 0)
(4.89731e-42 4.76731e-42 0)
(6.19343e-43 5.59419e-43 0)
(7.39582e-44 5.98637e-44 0)
(8.85662e-45 5.52722e-45 0)
(8.92234e-45 -5.58036e-45 0)
(7.47044e-44 -6.03945e-44 0)
(6.26522e-43 -5.64942e-43 0)
(4.96301e-42 -4.821e-42 0)
(3.3815e-41 -3.89513e-41 0)
(2.15187e-40 -2.71788e-40 0)
(1.00213e-39 -1.77459e-39 0)
(4.28993e-39 -8.49109e-39 0)
(4.437e-39 -3.6575e-38 0)
(1.4499e-39 -2.96215e-38 0)
(1.44587e-39 2.96189e-38 0)
(4.3909e-39 3.65484e-38 0)
(3.84137e-39 8.21119e-39 0)
(-3.16959e-39 -9.83562e-40 0)
(-3.49829e-38 -2.5822e-38 0)
(-2.83472e-37 -2.2499e-37 0)
(-1.94152e-36 -1.8662e-36 0)
(-1.27037e-35 -1.33117e-35 0)
(-5.76672e-35 -9.15472e-35 0)
(-2.51605e-34 -4.47087e-34 0)
(-2.52056e-36 -1.21697e-35 0)
(1.89245e-36 -4.958e-36 0)
(7.01198e-37 -3.51861e-36 0)
(4.29926e-37 -7.51334e-37 0)
(9.14579e-38 -1.39999e-37 0)
(2.00065e-38 -1.24148e-38 0)
(4.15913e-39 -6.61462e-39 0)
(7.90728e-40 -7.1846e-39 0)
(4.13481e-40 -7.88216e-39 0)
(-7.14802e-40 -8.9926e-39 0)
(-1.35183e-39 5.19925e-39 0)
(1.04512e-39 1.31156e-38 0)
(2.01455e-39 -3.14044e-39 0)
(-2.39788e-40 -8.38313e-39 0)
(-9.08344e-40 3.46752e-39 0)
(3.61034e-40 5.29441e-39 0)
(5.57695e-40 1.27879e-39 0)
(1.37968e-40 2.77815e-40 0)
(3.08762e-41 4.37768e-41 0)
(4.98408e-42 6.4267e-42 0)
(7.47102e-43 8.10925e-43 0)
(9.5911e-44 9.6529e-44 0)
(1.15913e-44 1.04546e-44 0)
(1.40349e-45 9.7391e-46 0)
(1.41405e-45 -9.83424e-46 0)
(1.17104e-44 -1.05489e-44 0)
(9.70465e-44 -9.7502e-44 0)
(7.57384e-43 -8.20292e-43 0)
(5.06814e-42 -6.51256e-42 0)
(3.15247e-41 -4.4489e-41 0)
(1.42181e-40 -2.83411e-40 0)
(5.83381e-40 -1.31595e-39 0)
(4.6646e-40 -5.52689e-39 0)
(-5.00546e-40 -4.45643e-39 0)
(-5.19427e-40 4.44565e-39 0)
(2.48152e-40 5.41709e-39 0)
(-1.56533e-39 1.45952e-40 0)
(-2.01314e-38 -1.14174e-38 0)
(-1.74025e-37 -1.12844e-37 0)
(-1.43307e-36 -9.97552e-37 0)
(-1.00878e-35 -8.5631e-36 0)
(-6.81879e-35 -6.39357e-35 0)
(-3.23079e-34 -4.66451e-34 0)
(-1.45908e-33 -2.45193e-33 0)
(-1.05986e-35 -7.14664e-35 0)
(1.66155e-35 -2.77587e-35 0)
(5.36268e-36 -1.97117e-35 0)
(2.81853e-36 -4.08344e-36 0)
(5.74796e-37 -7.8869e-37 0)
(1.14163e-37 -1.1298e-37 0)
(1.71953e-38 -1.62279e-38 0)
(2.46497e-39 -2.84834e-39 0)
(3.33086e-40 -1.32616e-39 0)
(-1.16048e-40 -1.28433e-39 0)
(-2.56419e-40 7.27962e-40 0)
(1.28729e-40 1.83803e-39 0)
(2.92603e-40 -4.35689e-40 0)
(-6.74058e-41 -1.17237e-39 0)
(-1.64762e-40 4.84042e-40 0)
(3.79304e-41 7.44505e-40 0)
(7.33803e-41 1.83956e-40 0)
(1.86943e-41 4.09474e-41 0)
(4.28549e-42 6.58693e-42 0)
(7.04227e-43 9.83907e-43 0)
(1.07112e-43 1.25998e-43 0)
(1.39198e-44 1.51781e-44 0)
(1.69905e-45 1.66086e-45 0)
(2.07624e-46 1.55897e-46 0)
(2.09203e-46 -1.57442e-46 0)
(1.71675e-45 -1.67608e-45 0)
(1.40874e-44 -1.53339e-44 0)
(1.08616e-43 -1.27484e-43 0)
(7.16384e-43 -9.97395e-43 0)
(4.37796e-42 -6.69749e-42 0)
(1.92836e-41 -4.18032e-41 0)
(7.68772e-41 -1.89545e-40 0)
(5.14462e-41 -7.78823e-40 0)
(-1.19365e-40 -6.27626e-40 0)
(-1.98448e-40 5.95105e-40 0)
(-8.73605e-40 4.43678e-40 0)
(-9.15986e-39 -3.42992e-39 0)
(-8.87499e-38 -3.67655e-38 0)
(-7.78625e-37 -3.63395e-37 0)
(-6.5938e-36 -3.31892e-36 0)
(-4.79889e-35 -2.99091e-35 0)
(-3.38693e-34 -2.40249e-34 0)
(-1.68893e-33 -1.91188e-33 0)
(-8.09989e-33 -1.12835e-32 0)
(-1.26583e-35 -3.72169e-34 0)
(1.48281e-34 -1.47077e-34 0)
(4.01925e-35 -1.07481e-34 0)
(1.67527e-35 -2.12555e-35 0)
(3.18899e-36 -3.94846e-36 0)
(6.00873e-37 -5.50217e-37 0)
(8.66892e-38 -7.36312e-38 0)
(1.19888e-38 -8.72353e-39 0)
(1.44678e-39 -1.11439e-39 0)
(1.43779e-40 -2.68418e-40 0)
(-1.99074e-41 8.79139e-41 0)
(1.73773e-41 2.44845e-40 0)
(3.85186e-41 -5.78452e-41 0)
(-1.04568e-41 -1.56467e-40 0)
(-2.33001e-41 6.45051e-41 0)
(4.18861e-42 9.98022e-41 0)
(9.2402e-42 2.51041e-41 0)
(2.40542e-42 5.69295e-42 0)
(5.61523e-43 9.30569e-43 0)
(9.36402e-44 1.40866e-43 0)
(1.44142e-44 1.82476e-44 0)
(1.89284e-45 2.21851e-45 0)
(2.32999e-46 2.44709e-46 0)
(2.87013e-47 2.31039e-47 0)
(2.89202e-47 -2.33356e-47 0)
(2.35432e-46 -2.46982e-46 0)
(1.9156e-45 -2.24167e-45 0)
(1.46148e-44 -1.84676e-44 0)
(9.52166e-44 -1.42851e-43 0)
(5.72937e-43 -9.46777e-43 0)
(2.47044e-42 -5.81821e-42 0)
(9.53089e-42 -2.59304e-41 0)
(3.90215e-42 -1.05052e-40 0)
(-4.12921e-41 -9.00537e-41 0)
(-2.91751e-40 7.34912e-42 0)
(-2.96184e-39 -7.59727e-40 0)
(-3.00764e-38 -9.4871e-39 0)
(-2.94896e-37 -9.88757e-38 0)
(-2.65034e-36 -1.01093e-36 0)
(-2.3135e-35 -9.69905e-36 0)
(-1.75025e-34 -9.48678e-35 0)
(-1.29269e-33 -8.52964e-34 0)
(-6.85352e-33 -7.8006e-33 0)
(-3.47949e-32 -5.36681e-32 0)
(4.64846e-34 -2.27747e-33 0)
(1.45206e-33 -7.48253e-34 0)
(3.40872e-34 -5.19457e-34 0)
(1.14825e-34 -9.76701e-35 0)
(1.99245e-35 -1.71545e-35 0)
(3.52976e-36 -2.2951e-36 0)
(4.87081e-37 -2.96104e-37 0)
(6.53246e-38 -3.36978e-38 0)
(7.67149e-39 -3.71562e-39 0)
(8.64258e-40 -3.91118e-40 0)
(8.63178e-41 -2.78806e-41 0)
(1.0298e-41 1.89639e-41 0)
(4.28285e-42 -5.51601e-42 0)
(-9.32244e-43 -1.42307e-41 0)
(-2.15907e-42 5.85432e-42 0)
(3.42226e-43 9.09881e-42 0)
(8.14806e-43 2.3284e-42 0)
(2.15292e-43 5.4107e-43 0)
(5.09e-44 9.01519e-44 0)
(8.57824e-45 1.39039e-44 0)
(1.33172e-45 1.82933e-45 0)
(1.76182e-46 2.25544e-46 0)
(2.18148e-47 2.51795e-47 0)
(2.70173e-48 2.40034e-48 0)
(2.71776e-48 -2.4246e-48 0)
(2.1968e-47 -2.54142e-47 0)
(1.77188e-46 -2.27894e-46 0)
(1.33411e-45 -1.85112e-45 0)
(8.49558e-45 -1.40938e-44 0)
(4.88331e-44 -9.16136e-44 0)
(1.80201e-43 -5.51264e-43 0)
(3.17086e-43 -2.38055e-42 0)
(-6.1147e-42 -9.25044e-42 0)
(-8.02828e-41 -4.06694e-42 0)
(-8.93795e-40 4.86263e-41 0)
(-9.80935e-39 4.57754e-40 0)
(-1.01493e-37 4.62146e-39 0)
(-1.02201e-36 4.19236e-38 0)
(-9.45297e-36 2.94208e-37 0)
(-8.59956e-35 9.77761e-38 0)
(-6.79146e-34 -4.65444e-35 0)
(-5.38475e-33 -1.13023e-33 0)
(-3.06167e-32 -1.71053e-32 0)
(-1.83481e-31 -1.80319e-31 0)
(1.12607e-32 -1.23121e-32 0)
(1.96671e-32 -4.67358e-33 0)
(3.60628e-33 -3.47147e-33 0)
(8.46147e-34 -5.71214e-34 0)
(1.27725e-34 -9.58923e-35 0)
(2.01502e-35 -1.21621e-35 0)
(2.60328e-36 -1.52796e-36 0)
(3.31624e-37 -1.68927e-37 0)
(3.76103e-38 -1.82369e-38 0)
(4.13238e-39 -1.81864e-39 0)
(4.19517e-40 -1.74889e-40 0)
(4.12308e-41 -1.41804e-41 0)
(4.04899e-42 -1.83493e-42 0)
(2.65113e-43 -1.27693e-42 0)
(-1.28635e-43 4.67054e-43 0)
(2.59879e-44 7.43271e-43 0)
(5.84811e-44 1.92478e-43 0)
(1.56281e-44 4.51046e-44 0)
(3.75093e-45 7.57787e-45 0)
(6.40007e-46 1.17528e-45 0)
(1.00516e-46 1.55453e-46 0)
(1.34306e-47 1.92333e-47 0)
(1.6776e-48 2.154e-48 0)
(2.09673e-49 2.0578e-49 0)
(2.13671e-49 -2.06687e-49 0)
(1.73377e-48 -2.1569e-48 0)
(1.41579e-47 -1.9173e-47 0)
(1.09976e-46 -1.53452e-46 0)
(7.62227e-46 -1.13591e-45 0)
(5.32386e-45 -6.9271e-45 0)
(3.54824e-44 -3.54614e-44 0)
(3.04809e-43 -5.92277e-44 0)
(2.98268e-42 9.93103e-43 0)
(3.43731e-41 2.10442e-41 0)
(3.85075e-40 2.5643e-40 0)
(4.14995e-39 2.86945e-39 0)
(4.21732e-38 3.06946e-38 0)
(4.13307e-37 2.96538e-37 0)
(3.73988e-36 2.44142e-36 0)
(3.27281e-35 1.00081e-35 0)
(2.51615e-34 -1.56899e-34 0)
(1.87629e-33 -5.63873e-33 0)
(1.03718e-32 -9.98393e-32 0)
(5.47384e-32 -1.27992e-30 0)
(1.56538e-31 -9.9075e-32 0)
(1.89893e-31 -1.23457e-32 0)
(2.46961e-32 -1.05167e-33 0)
(5.50198e-33 -6.75705e-35 0)
(7.48426e-34 -3.01108e-36 0)
(1.1421e-34 -5.70036e-38 0)
(1.40835e-35 8.09384e-39 0)
(1.75377e-36 1.35644e-39 0)
(1.93741e-37 1.53271e-40 0)
(2.09457e-38 1.45882e-41 0)
(2.09166e-39 1.37921e-42 0)
(2.02518e-40 2.4694e-43 0)
(1.85066e-41 -2.17061e-44 0)
(1.62791e-42 -8.44113e-44 0)
(1.26116e-43 3.50808e-44 0)
(1.29414e-44 5.48762e-44 0)
(5.15131e-45 1.43694e-44 0)
(1.22115e-45 3.40925e-45 0)
(2.84157e-46 5.79028e-46 0)
(4.83368e-47 9.06734e-47 0)
(7.60123e-48 1.20956e-47 0)
(1.01906e-48 1.50736e-48 0)
(1.2772e-49 1.69894e-49 0)
(1.69076e-50 1.6299e-50 0)
(3.03091e-50 -1.65551e-50 0)
(3.44028e-49 -1.72808e-49 0)
(4.20106e-48 -1.54322e-48 0)
(5.31913e-47 -1.25365e-47 0)
(6.82414e-46 -9.61739e-47 0)
(8.85607e-45 -6.47783e-46 0)
(1.13268e-43 -4.27781e-45 0)
(1.42556e-42 -2.52238e-44 0)
(1.73327e-41 -1.89672e-43 0)
(2.04544e-40 -1.65908e-42 0)
(2.30487e-39 -1.9009e-41 0)
(2.51125e-38 -2.12504e-40 0)
(2.58104e-37 -2.23473e-39 0)
(2.56892e-36 -2.02142e-38 0)
(2.35991e-35 -1.2841e-37 0)
(2.11368e-34 5.81623e-37 0)
(1.66077e-33 3.9638e-35 0)
(1.28964e-32 9.18066e-34 0)
(7.39767e-32 1.46287e-32 0)
(4.30706e-31 1.7544e-31 0)
(1.68434e-32 -9.67079e-32 0)
(1.678e-32 -9.47263e-33 0)
(3.14329e-33 2.21911e-33 0)
(7.55165e-34 4.87153e-34 0)
(1.16255e-34 9.16377e-35 0)
(1.86406e-35 1.20145e-35 0)
(2.43631e-36 1.52864e-36 0)
(3.13195e-37 1.69645e-37 0)
(3.57667e-38 1.83308e-38 0)
(3.95198e-39 1.82685e-39 0)
(4.03236e-40 1.76486e-40 0)
(3.96633e-41 1.60889e-41 0)
(3.67781e-42 1.41565e-42 0)
(3.2836e-43 1.13059e-43 0)
(2.72316e-44 1.23155e-44 0)
(2.42645e-45 4.82663e-45 0)
(4.77933e-46 1.13115e-45 0)
(9.45131e-47 2.60379e-46 0)
(2.06755e-47 4.40724e-47 0)
(3.47494e-48 6.9048e-48 0)
(5.45503e-49 9.23592e-49 0)
(7.33219e-50 1.1536e-49 0)
(9.21888e-51 1.30295e-50 0)
(1.23039e-51 1.18054e-51 0)
(2.26682e-51 -2.41878e-51 0)
(2.5736e-50 -3.10982e-50 0)
(3.12904e-49 -3.8882e-49 0)
(3.92402e-48 -4.95415e-48 0)
(4.97049e-47 -6.47782e-47 0)
(6.3396e-46 -8.50612e-46 0)
(7.95933e-45 -1.11872e-44 0)
(9.79103e-44 -1.44243e-43 0)
(1.16363e-42 -1.82299e-42 0)
(1.33383e-41 -2.22147e-41 0)
(1.46152e-40 -2.62249e-40 0)
(1.53172e-39 -2.93895e-39 0)
(1.51916e-38 -3.13643e-38 0)
(1.42996e-37 -3.00218e-37 0)
(1.25273e-36 -2.39226e-36 0)
(1.02633e-35 -7.49474e-36 0)
(7.54667e-35 2.19598e-34 0)
(4.94069e-34 6.83205e-33 0)
(2.58853e-33 1.17628e-31 0)
(8.88371e-33 1.48345e-30 0)
(3.83437e-33 -9.63481e-33 0)
(-2.76823e-34 -1.40767e-33 0)
(5.42954e-35 2.56132e-34 0)
(5.77688e-35 7.36721e-35 0)
(1.26288e-35 1.49332e-35 0)
(2.56293e-36 2.0937e-36 0)
(3.79374e-37 2.75762e-37 0)
(5.33929e-38 3.16791e-38 0)
(6.47331e-39 3.50075e-39 0)
(7.48849e-40 3.56671e-40 0)
(7.90394e-41 3.50195e-41 0)
(7.98669e-42 3.24142e-42 0)
(7.56201e-43 2.89181e-43 0)
(6.8754e-44 2.42063e-44 0)
(5.89273e-45 2.20757e-45 0)
(5.03731e-46 4.42532e-46 0)
(5.98047e-47 8.74291e-47 0)
(8.60409e-48 1.89778e-47 0)
(1.58625e-48 3.17534e-48 0)
(2.52784e-49 4.96576e-49 0)
(3.88274e-50 6.65832e-50 0)
(5.18223e-51 8.34097e-51 0)
(6.27081e-52 9.45684e-52 0)
(-2.81149e-52 9.40265e-53 0)
(-5.57902e-51 -4.50404e-53 0)
(-8.55148e-50 -2.15613e-52 0)
(-1.27085e-48 2.89689e-51 0)
(-1.83669e-47 1.01299e-49 0)
(-2.57292e-46 1.9433e-48 0)
(-3.50261e-45 3.11345e-47 0)
(-4.60653e-44 4.4996e-46 0)
(-5.88071e-43 6.08863e-45 0)
(-7.21507e-42 7.8601e-44 0)
(-8.58443e-41 9.68666e-43 0)
(-9.73766e-40 1.16503e-41 0)
(-1.0715e-38 1.36194e-40 0)
(-1.10948e-37 1.65373e-39 0)
(-1.1185e-36 2.16781e-38 0)
(-1.03571e-35 3.39055e-37 0)
(-9.43802e-35 5.91083e-36 0)
(-7.46491e-34 1.05681e-34 0)
(-5.93338e-33 1.69267e-33 0)
(-3.37976e-32 2.25522e-32 0)
(-2.03301e-31 2.22176e-31 0)
(4.34557e-34 -1.916e-33 0)
(-1.37867e-34 -2.86196e-34 0)
(-1.88188e-35 1.59036e-35 0)
(2.18578e-36 8.64602e-36 0)
(9.66529e-37 2.1499e-36 0)
(2.52257e-37 3.34059e-37 0)
(4.17643e-38 4.76914e-38 0)
(6.30141e-39 5.79727e-39 0)
(8.01195e-40 6.70124e-40 0)
(9.5876e-41 7.06272e-41 0)
(1.03935e-41 7.12565e-42 0)
(1.07195e-42 6.73744e-43 0)
(1.03249e-43 6.11996e-44 0)
(9.52038e-45 5.25791e-45 0)
(8.29721e-46 4.52693e-46 0)
(7.06777e-47 5.45026e-47 0)
(6.97548e-48 7.89771e-48 0)
(8.04978e-49 1.45341e-48 0)
(1.228e-49 2.30965e-49 0)
(1.80976e-50 3.53613e-50 0)
(2.68091e-51 4.71011e-51 0)
(3.53673e-52 5.88816e-52 0)
(5.18003e-53 7.12322e-53 0)
(1.29198e-52 8.04488e-53 0)
(1.92233e-51 1.1758e-51 0)
(2.90001e-50 1.83456e-50 0)
(4.25647e-49 2.79099e-49 0)
(6.07946e-48 4.12828e-48 0)
(8.41793e-47 5.9434e-47 0)
(1.13163e-45 8.29769e-46 0)
(1.46859e-44 1.12584e-44 0)
(1.8459e-43 1.47584e-43 0)
(2.22696e-42 1.87712e-42 0)
(2.59587e-41 2.29445e-41 0)
(2.8797e-40 2.71781e-40 0)
(3.08057e-39 3.07002e-39 0)
(3.0934e-38 3.36271e-38 0)
(2.99398e-37 3.475e-37 0)
(2.65245e-36 3.50911e-36 0)
(2.27066e-35 3.30068e-35 0)
(1.68014e-34 3.10856e-34 0)
(1.20496e-33 2.64596e-33 0)
(6.17988e-33 2.26934e-32 0)
(3.0131e-32 1.45946e-31 0)
(6.08087e-35 -2.12032e-34 0)
(-2.76182e-35 -3.62369e-35 0)
(-4.65639e-36 -1.78651e-37 0)
(-2.93839e-37 7.09641e-37 0)
(4.05402e-38 2.18792e-37 0)
(2.10731e-38 3.73357e-38 0)
(4.14935e-39 5.67074e-39 0)
(6.90695e-40 7.21108e-40 0)
(9.31355e-41 8.61538e-41 0)
(1.16273e-41 9.32404e-42 0)
(1.29983e-42 9.60146e-43 0)
(1.37308e-43 9.2359e-44 0)
(1.34762e-44 8.5077e-45 0)
(1.26178e-45 7.41952e-46 0)
(1.11583e-46 6.33868e-47 0)
(9.54455e-48 6.30707e-48 0)
(8.58059e-49 7.33492e-49 0)
(8.41521e-50 1.12166e-49 0)
(1.03781e-50 1.65172e-50 0)
(1.35217e-51 2.44108e-51 0)
(1.8707e-52 3.2099e-52 0)
(2.75008e-53 4.01641e-53 0)
(6.219e-53 9.16167e-54 0)
(9.46051e-52 7.64749e-53 0)
(1.47142e-50 1.2149e-51 0)
(2.23268e-49 1.8936e-50 0)
(3.29542e-48 2.87884e-49 0)
(4.73561e-47 4.25777e-48 0)
(6.60022e-46 6.13217e-47 0)
(8.9398e-45 8.56693e-46 0)
(1.16982e-43 1.16349e-44 0)
(1.48492e-42 1.52689e-43 0)
(1.81111e-41 1.9448e-42 0)
(2.13954e-40 2.38118e-41 0)
(2.40906e-39 2.82771e-40 0)
(2.62615e-38 3.20795e-39 0)
(2.69331e-37 3.54717e-38 0)
(2.68064e-36 3.74795e-37 0)
(2.45071e-35 3.98357e-36 0)
(2.19236e-34 4.18336e-35 0)
(1.70396e-33 4.72835e-34 0)
(1.31603e-32 5.26344e-33 0)
(7.31408e-32 5.76468e-32 0)
(4.16155e-31 4.89972e-31 0)
(6.42655e-36 -2.87258e-35 0)
(-3.14784e-36 -5.06295e-36 0)
(-5.87798e-37 -3.56378e-37 0)
(-6.47302e-38 3.06989e-38 0)
(-1.30074e-39 1.88783e-38 0)
(1.39876e-39 3.76107e-39 0)
(3.45579e-40 6.25737e-40 0)
(6.36312e-41 8.41961e-41 0)
(9.07793e-42 1.04861e-41 0)
(1.17752e-42 1.17004e-42 0)
(1.35375e-43 1.23397e-43 0)
(1.46076e-44 1.20953e-44 0)
(1.45838e-45 1.13133e-45 0)
(1.38436e-46 1.00033e-46 0)
(1.23944e-47 8.56517e-48 0)
(1.06768e-48 7.73058e-49 0)
(9.26039e-50 7.62252e-50 0)
(8.35969e-51 9.44005e-51 0)
(8.85297e-52 1.23145e-51 0)
(1.02115e-52 1.70001e-52 0)
(1.32928e-53 2.16796e-53 0)
(7.20859e-54 2.46759e-54 0)
(9.21414e-53 -2.83034e-54 0)
(1.46881e-51 -5.10939e-53 0)
(2.28759e-50 -8.15941e-52 0)
(3.47499e-49 -1.26965e-50 0)
(5.13513e-48 -1.92677e-49 0)
(7.389e-47 -2.84431e-48 0)
(1.03126e-45 -4.08797e-47 0)
(1.39901e-44 -5.69851e-46 0)
(1.8337e-43 -7.71948e-45 0)
(2.33212e-42 -1.01015e-43 0)
(2.85017e-41 -1.28162e-42 0)
(3.37528e-40 -1.55977e-41 0)
(3.81008e-39 -1.82845e-40 0)
(4.16688e-38 -2.00708e-39 0)
(4.28742e-37 -2.01873e-38 0)
(4.28657e-36 -1.56587e-37 0)
(3.93613e-35 -2.3918e-37 0)
(3.54544e-34 2.89951e-35 0)
(2.7729e-33 8.64327e-34 0)
(2.16768e-32 1.72888e-32 0)
(1.21691e-31 2.61769e-31 0)
(7.12837e-31 3.01608e-30 0)
(7.21123e-37 -2.99024e-36 0)
(-3.56658e-37 -5.61658e-37 0)
(-6.91587e-38 -6.08369e-38 0)
(-1.00973e-38 -1.18679e-39 0)
(-7.27724e-40 1.29024e-39 0)
(4.96502e-41 3.16493e-40 0)
(2.41824e-41 5.79166e-41 0)
(5.2963e-42 8.23105e-42 0)
(8.17379e-43 1.06444e-42 0)
(1.11394e-43 1.22114e-43 0)
(1.32402e-44 1.31541e-44 0)
(1.46434e-45 1.31153e-45 0)
(1.48976e-46 1.24365e-46 0)
(1.43538e-47 1.11295e-47 0)
(1.30127e-48 9.58914e-49 0)
(1.1305e-49 8.33347e-50 0)
(9.65183e-51 7.54823e-51 0)
(8.30937e-52 8.02507e-52 0)
(7.86744e-53 9.27603e-53 0)
(8.0635e-54 1.17728e-53 0)
(9.3225e-55 1.40449e-54 0)
(2.69212e-55 -4.33196e-55 0)
(2.68141e-54 -1.0117e-53 0)
(4.26588e-53 -1.65778e-52 0)
(6.64728e-52 -2.64857e-51 0)
(1.01036e-50 -4.12586e-50 0)
(1.49398e-49 -6.26879e-49 0)
(2.1512e-48 -9.26578e-48 0)
(3.00459e-47 -1.3336e-46 0)
(4.07946e-46 -1.86177e-45 0)
(5.35178e-45 -2.52638e-44 0)
(6.81352e-44 -3.31216e-43 0)
(8.33611e-43 -4.21247e-42 0)
(9.8849e-42 -5.14394e-41 0)
(1.11735e-40 -6.06954e-40 0)
(1.22408e-39 -6.7658e-39 0)
(1.26167e-38 -7.11299e-38 0)
(1.26439e-37 -6.45592e-37 0)
(1.16367e-36 -4.18349e-36 0)
(1.05178e-35 1.56243e-35 0)
(8.25182e-35 1.19541e-33 0)
(6.48783e-34 2.79746e-32 0)
(3.65931e-33 4.46934e-31 0)
(2.171e-32 5.36615e-30 0)
(6.94059e-38 -3.2964e-37 0)
(-3.40343e-38 -6.35108e-38 0)
(-6.87931e-39 -9.09683e-39 0)
(-1.16508e-39 -6.35526e-40 0)
(-1.10824e-40 4.93192e-41 0)
(-2.72959e-42 2.24268e-41 0)
(1.31128e-42 4.84421e-42 0)
(3.83439e-43 7.43318e-43 0)
(6.52437e-44 1.0092e-43 0)
(9.38926e-45 1.19663e-44 0)
(1.15555e-45 1.32101e-45 0)
(1.3101e-46 1.34209e-46 0)
(1.35806e-47 1.29167e-47 0)
(1.32769e-48 1.17021e-48 0)
(1.21821e-49 1.01643e-49 0)
(1.06781e-50 8.68534e-51 0)
(9.07847e-52 7.49121e-52 0)
(7.64074e-53 7.11329e-53 0)
(6.76392e-54 7.30931e-54 0)
(6.15232e-55 8.36723e-55 0)
(-2.68518e-55 8.36127e-56 0)
(-5.59216e-54 -2.06511e-55 0)
(-9.15622e-53 -3.63951e-54 0)
(-1.4626e-51 -5.94957e-53 0)
(-2.27797e-50 -9.49669e-52 0)
(-3.46041e-49 -1.47795e-50 0)
(-5.11362e-48 -2.24319e-49 0)
(-7.35812e-47 -3.31189e-48 0)
(-1.02696e-45 -4.7607e-47 0)
(-1.39318e-44 -6.63726e-46 0)
(-1.82607e-43 -8.99266e-45 0)
(-2.32243e-42 -1.17697e-43 0)
(-2.83833e-41 -1.49365e-42 0)
(-3.36128e-40 -1.8186e-41 0)
(-3.79429e-39 -2.13411e-40 0)
(-4.14963e-38 -2.34949e-39 0)
(-4.26966e-37 -2.38516e-38 0)
(-4.26885e-36 -1.91941e-37 0)
(-3.91982e-35 -5.31311e-37 0)
(-3.53084e-34 2.77737e-35 0)
(-2.76148e-33 8.8207e-34 0)
(-2.159e-32 1.79413e-32 0)
(-1.2121e-31 2.73315e-31 0)
(-7.10371e-31 3.16389e-30 0)
(6.70304e-39 -3.14244e-38 0)
(-3.23693e-39 -6.28339e-39 0)
(-6.68775e-40 -1.04811e-39 0)
(-1.27118e-40 -9.80784e-41 0)
(-1.41189e-41 -2.06207e-42 0)
(-9.62668e-43 1.23941e-42 0)
(2.40239e-44 3.52606e-43 0)
(2.31481e-44 5.95383e-44 0)
(4.69093e-45 8.5314e-45 0)
(7.31212e-46 1.04729e-45 0)
(9.41711e-47 1.18514e-46 0)
(1.10068e-47 1.22686e-47 0)
(1.16606e-48 1.19814e-48 0)
(1.15886e-49 1.09856e-49 0)
(1.07716e-50 9.62565e-51 0)
(9.53478e-52 8.18588e-52 0)
(8.11575e-53 6.89329e-53 0)
(6.75876e-54 6.11588e-54 0)
(5.73085e-55 6.0054e-55 0)
(3.55027e-56 6.77262e-56 0)
(-2.26818e-55 2.3148e-56 0)
(-3.86731e-54 2.56057e-55 0)
(-6.31909e-53 4.27264e-54 0)
(-1.00841e-51 6.9925e-53 0)
(-1.56896e-50 1.11797e-51 0)
(-2.38067e-49 1.74293e-50 0)
(-3.51381e-48 2.65052e-49 0)
(-5.04928e-47 3.9214e-48 0)
(-7.0371e-46 5.65002e-47 0)
(-9.53102e-45 7.89685e-46 0)
(-1.2471e-43 1.07304e-44 0)
(-1.58287e-42 1.40896e-43 0)
(-1.93037e-41 1.79576e-42 0)
(-2.28012e-40 2.20025e-41 0)
(-2.56692e-39 2.61528e-40 0)
(-2.79768e-38 2.97057e-39 0)
(-2.86851e-37 3.29183e-38 0)
(-2.85418e-36 3.49242e-37 0)
(-2.60836e-35 3.74345e-36 0)
(-2.33242e-34 3.99246e-35 0)
(-1.81178e-33 4.61067e-34 0)
(-1.39869e-32 5.25668e-33 0)
(-7.76804e-32 5.85431e-32 0)
(-4.42078e-31 5.045e-31 0)
(-6.39771e-35 2.95401e-30 0)
(4.32793e-40 -3.80364e-39 0)
(-2.07171e-40 -7.80282e-40 0)
(-4.36378e-41 -1.49148e-40 0)
(-8.73996e-42 -1.68159e-41 0)
(-1.03287e-42 -1.22601e-42 0)
(-8.58558e-44 9.37676e-45 0)
(-1.82925e-45 2.39804e-44 0)
(1.05372e-45 5.06909e-45 0)
(2.53737e-46 8.02991e-46 0)
(4.20992e-47 1.04299e-46 0)
(5.60028e-48 1.22563e-47 0)
(6.68178e-49 1.30332e-48 0)
(7.18121e-50 1.29885e-49 0)
(7.21298e-51 1.20995e-50 0)
(6.76048e-52 1.07221e-51 0)
(6.02356e-53 9.09506e-53 0)
(5.16331e-54 7.03973e-54 0)
(4.87846e-55 6.24787e-55 0)
(4.42209e-56 5.34223e-55 0)
(-2.62696e-56 1.37959e-55 0)
(-5.92754e-56 4.6597e-56 0)
(-8.70844e-55 2.05242e-55 0)
(-1.41577e-53 3.33139e-54 0)
(-2.25239e-52 5.44302e-53 0)
(-3.49287e-51 8.68922e-52 0)
(-5.28018e-50 1.35249e-50 0)
(-7.76185e-49 2.05315e-49 0)
(-1.11021e-47 3.03195e-48 0)
(-1.5395e-46 4.35942e-47 0)
(-2.07292e-45 6.07964e-46 0)
(-2.6951e-44 8.24042e-45 0)
(-3.39496e-43 1.07914e-43 0)
(-4.10631e-42 1.37104e-42 0)
(-4.80164e-41 1.67396e-41 0)
(-5.3467e-40 1.9801e-40 0)
(-5.7464e-39 2.23351e-39 0)
(-5.80331e-38 2.44181e-38 0)
(-5.65711e-37 2.5181e-37 0)
(-5.05747e-36 2.53477e-36 0)
(-4.3782e-35 2.37474e-35 0)
(-3.28776e-34 2.22213e-34 0)
(-2.39632e-33 1.87617e-33 0)
(-1.25719e-32 1.59276e-32 0)
(-6.22159e-32 1.01398e-31 0)
(-8.81225e-36 5.61018e-31 0)
(-1.7696e-39 -9.53108e-39 0)
(8.41894e-40 -1.95134e-39 0)
(1.78853e-40 -3.70891e-40 0)
(3.70598e-41 -4.15938e-41 0)
(4.55742e-42 -2.98982e-42 0)
(4.24873e-43 3.16148e-44 0)
(1.91663e-44 6.05752e-44 0)
(-2.6063e-45 1.26812e-44 0)
(-8.25268e-46 2.00062e-45 0)
(-1.47326e-46 2.59203e-46 0)
(-2.0261e-47 3.04072e-47 0)
(-2.46604e-48 3.22918e-48 0)
(-2.6853e-49 3.21487e-49 0)
(-2.7229e-50 2.99168e-50 0)
(-2.57028e-51 2.63752e-51 0)
(-2.29963e-52 2.17372e-52 0)
(-1.91975e-53 8.38667e-54 0)
(-4.69074e-55 1.26165e-54 0)
(3.22037e-56 8.93311e-54 0)
(-5.06266e-55 2.43218e-54 0)
(-1.52064e-55 6.34752e-55 0)
(-2.17787e-55 1.57912e-55 0)
(-2.94517e-54 7.78697e-55 0)
(-4.67118e-53 1.23931e-53 0)
(-7.23531e-52 1.97183e-52 0)
(-1.0921e-50 3.0587e-51 0)
(-1.60231e-49 4.62543e-50 0)
(-2.28633e-48 6.80197e-49 0)
(-3.16107e-47 9.73339e-48 0)
(-4.2409e-46 1.35037e-46 0)
(-5.4897e-45 1.81929e-45 0)
(-6.87824e-44 2.36687e-44 0)
(-8.26582e-43 2.9837e-43 0)
(-9.58912e-42 3.61202e-42 0)
(-1.05747e-40 4.22805e-41 0)
(-1.12298e-39 4.71424e-40 0)
(-1.1172e-38 5.07588e-39 0)
(-1.06881e-37 5.14128e-38 0)
(-9.32396e-37 5.03761e-37 0)
(-7.83137e-36 4.54998e-36 0)
(-5.64275e-35 4.01115e-35 0)
(-3.92896e-34 3.11619e-34 0)
(-1.92709e-33 2.36829e-33 0)
(-9.11556e-33 1.3251e-32 0)
(-9.43181e-37 6.57549e-32 0)
(-2.07756e-38 -9.77717e-38 0)
(1.00164e-38 -1.9619e-38 0)
(2.07628e-39 -3.34168e-39 0)
(3.99535e-40 -3.24474e-40 0)
(4.51665e-41 -1.06704e-41 0)
(3.29978e-42 3.1769e-42 0)
(-2.3065e-44 9.96112e-43 0)