/*--------------------------------*- C++ -*----------------------------------*\
| =========                 |                                                 |
| \\      /  F ield         | OpenFOAM: The Open Source CFD Toolbox           |
|  \\    /   O peration     | Version:  2.4.0                                 |
|   \\  /    A nd           | Web:      www.OpenFOAM.org                      |
|    \\/     M anipulation  |                                                 |
\*---------------------------------------------------------------------------*/
FoamFile
{
    version     2.0;
    format      ascii;
    class       surfaceScalarField;
    location    "0.1";
    object      phi;
}
// * * * * * * * * * * * * * * * * * * * * * * * * * * * * * * * * * * * * * //

dimensions      [0 3 -1 0 0 0 0];

internalField   nonuniform List<scalar> 
15214
(
1.15901e-40
3.94521e-43
9.02745e-40
4.7183e-42
1.20069e-39
1.7908e-40
1.50014e-37
1.70396e-40
2.36068e-43
-3.54595e-40
-1.50011e-37
-3.54585e-40
-1.08186e-39
1.70797e-40
1.15999e-40
1.8419e-40
1.99096e-39
1.88528e-40
1.5133e-37
3.50268e-40
1.51035e-37
-1.79069e-40
-1.47791e-37
-5.24991e-40
1.0218e-39
1.70396e-40
1.50133e-37
3.49475e-40
1.20398e-39
-1.70797e-40
9.02984e-40
-1.79091e-40
1.15769e-40
-4.71919e-42
3.05501e-42
-3.9108e-43
2.29921e-43
-1.02309e-44
6.14593e-45
-5.73084e-46
3.31209e-46
-1.47416e-47
8.62803e-48
-6.37883e-49
3.6514e-49
-1.58012e-50
1.82044e-50
-5.47373e-52
3.6545e-49
5.47772e-52
8.63682e-48
1.5814e-50
3.31565e-46
6.3843e-49
6.15419e-45
1.47568e-47
2.30244e-43
5.73706e-46
3.06082e-42
1.0245e-44
1.15993e-40
3.91639e-43
9.05809e-40
4.72885e-42
1.31668e-39
1.79471e-40
1.5092e-37
1.75124e-40
1.31668e-39
-1.75124e-40
9.05809e-40
-1.79471e-40
1.15993e-40
-4.72885e-42
3.06082e-42
-3.91639e-43
2.30244e-43
-1.0245e-44
6.15419e-45
-5.73706e-46
3.31565e-46
-1.47569e-47
8.63651e-48
-6.39768e-49
3.57353e-49
-5.76946e-50
1.63486e-51
-3.8454e-49
8.18083e-51
-1.09027e-47
-3.10738e-49
4.67447e-42
-3.8683e-43
4.07646e-41
-4.97541e-42
1.28093e-39
-1.87936e-40
2.4576e-39
-1.78763e-40
1.04777e-44
3.7209e-40
-2.45745e-39
3.72079e-40
-1.27612e-39
-1.79178e-40
4.68069e-42
-1.93317e-40
1.31718e-39
-1.97899e-40
3.74322e-39
-3.67519e-40
2.50318e-39
1.87925e-40
-1.13108e-39
5.50853e-40
4.5588e-41
-1.78763e-40
2.46243e-39
-3.66699e-40
1.28109e-39
1.79179e-40
4.07753e-41
1.87947e-40
4.67052e-42
4.9765e-42
1.42563e-43
4.04589e-43
1.01735e-44
1.05694e-44
2.98343e-46
5.85757e-46
1.56009e-47
1.50384e-47
4.34583e-49
6.46756e-49
1.80586e-50
1.59932e-50
9.48214e-52
5.51957e-52
1.80745e-50
-5.52358e-52
4.35041e-49
-1.60061e-50
1.56184e-47
-6.47308e-49
2.9876e-46
-1.50539e-47
1.01887e-44
-5.86388e-46
1.42846e-43
-1.05838e-44
4.68039e-42
-4.0516e-43
4.09076e-41
-4.98648e-42
1.28562e-39
-1.88341e-40
2.49851e-39
-1.8375e-40
1.28562e-39
1.8375e-40
4.09076e-41
1.88341e-40
4.68039e-42
4.98648e-42
1.42846e-43
4.0516e-43
1.01887e-44
1.05838e-44
2.9876e-46
5.86388e-46
1.56176e-47
1.50521e-47
4.26718e-49
6.16729e-49
-1.96664e-49
-9.38786e-49
-2.0576e-49
-8.72772e-48
2.16191e-49
-2.4747e-46
-7.06451e-48
4.72755e-43
-1.84192e-44
1.75247e-42
-2.45329e-43
2.91287e-41
-7.80701e-42
5.48162e-41
-7.35346e-42
1.37557e-45
1.54257e-41
-5.47993e-41
1.54252e-41
-2.86418e-41
-7.37338e-42
4.7277e-43
-8.07176e-42
3.04266e-41
-8.2983e-42
8.44176e-41
-1.51998e-41
5.70555e-41
7.80645e-42
-2.34468e-41
2.27792e-41
2.24067e-42
-7.35346e-42
5.53043e-41
-1.51605e-41
2.91455e-41
7.37342e-42
1.75383e-42
7.8076e-42
4.71435e-43
2.45384e-43
1.54433e-44
1.93703e-44
1.3358e-45
5.56802e-46
3.96421e-47
3.01462e-47
2.22094e-48
8.26974e-49
6.14624e-50
3.49804e-50
2.61556e-51
9.09037e-52
1.35323e-52
3.0981e-53
2.61784e-51
-3.10042e-53
6.15277e-50
-9.09791e-52
2.22349e-48
-3.50114e-50
3.97009e-47
-8.27851e-49
1.33796e-45
-3.01803e-47
1.54807e-44
-5.57594e-46
4.72731e-43
-1.93997e-44
1.76794e-42
-2.45911e-43
2.96014e-41
-7.82641e-42
5.65841e-41
-7.59937e-42
2.96014e-41
7.59937e-42
1.76794e-42
7.82641e-42
4.72731e-43
2.45911e-43
1.54807e-44
1.93997e-44
1.33796e-45
5.57594e-46
3.97001e-47
3.01789e-47
2.19964e-48
7.80869e-49
-1.73054e-49
-7.43115e-49
-6.21703e-48
-2.49954e-47
-5.9816e-48
-2.26743e-46
6.25041e-48
-6.68626e-45
-1.8348e-46
1.84248e-44
-2.2892e-45
5.15566e-44
-2.54436e-44
5.12991e-43
-8.03443e-43
9.41784e-43
-7.57081e-43
5.99752e-47
1.5884e-42
-9.4106e-43
1.58833e-42
-4.93961e-43
-7.59511e-43
1.84231e-44
-8.31252e-43
5.46907e-43
-8.54403e-43
1.4732e-42
-1.56532e-42
1.01237e-42
8.03372e-43
-3.5815e-43
2.34548e-42
7.06429e-44
-7.57081e-43
9.60869e-43
-1.56052e-42
5.13715e-43
7.59515e-43
5.16158e-44
8.03513e-43
1.8365e-44
2.5449e-44
6.64245e-46
2.36205e-45
5.8135e-47
6.84284e-47
1.83791e-48
3.94587e-48
1.02385e-49
1.07733e-49
2.96449e-51
4.65645e-51
1.25147e-52
1.19599e-52
6.69668e-54
4.08522e-54
1.2526e-52
-4.08821e-54
2.96773e-51
-1.19697e-52
1.02506e-49
-4.66053e-51
1.84075e-48
-1.07849e-49
5.82344e-47
-3.95041e-48
6.6598e-46
-6.85314e-47
1.84213e-44
-2.36589e-45
5.22217e-44
-2.55135e-44
5.31412e-43
-8.05807e-43
9.94004e-43
-7.82594e-43
5.31412e-43
7.82594e-43
5.22217e-44
8.05807e-43
1.84213e-44
2.55135e-44
6.6598e-46
2.36589e-45
5.82334e-47
6.85303e-47
1.823e-48
3.92477e-48
-4.36838e-49
-7.80874e-49
-5.28896e-48
-1.46751e-47
-1.39926e-46
-4.70049e-46
-1.34611e-46
-4.31636e-45
1.40168e-46
-1.26788e-43
-3.50827e-45
1.26263e-45
-8.91095e-46
2.60885e-45
-1.19984e-45
5.83185e-45
-3.26572e-44
8.66723e-45
-3.05516e-44
4.42177e-48
6.43909e-44
-8.61676e-45
6.43879e-44
-4.52748e-45
-3.06587e-44
1.26253e-45
-3.38383e-44
7.23193e-45
-3.48642e-44
1.57613e-44
-6.33687e-44
1.25792e-44
3.26009e-44
1.08097e-45
9.49408e-44
3.91642e-45
-3.05497e-44
9.97556e-45
-6.31539e-44
5.88213e-45
3.06589e-44
2.61233e-45
3.26076e-44
1.25825e-45
1.12849e-45
4.59942e-47
1.05694e-46
4.28457e-48
3.25821e-48
1.35223e-49
1.86812e-49
7.69126e-51
5.33127e-51
2.21025e-52
2.28422e-52
9.35061e-54
6.06091e-54
4.94808e-55
2.05117e-55
9.35883e-54
-2.0527e-55
2.21264e-52
-6.06594e-54
7.70035e-51
-2.28627e-52
1.35435e-49
-5.33712e-51
4.29203e-48
-1.87034e-49
4.61217e-47
-3.26331e-48
1.2624e-45
-1.05875e-46
2.65403e-45
-1.13156e-45
7.09412e-45
-3.271e-44
1.13211e-44
-3.16813e-44
7.09412e-45
3.16813e-44
2.65403e-45
3.271e-44
1.2624e-45
1.13156e-45
4.61209e-47
1.05875e-46
4.26542e-48
3.23785e-48
-3.18591e-49
-3.93003e-49
-1.41868e-47
-2.06962e-47
-1.38411e-46
-3.3988e-46
-3.80438e-45
-1.13402e-44
-3.66653e-45
-1.04453e-43
3.80333e-45
-3.24538e-42
-8.52595e-44
2.44937e-47
-1.97216e-44
1.16076e-46
-1.50576e-45
1.43492e-47
-3.18818e-45
-6.89453e-47
-2.09975e-45
2.25461e-49
4.34686e-45
7.21293e-47
4.35001e-45
3.8855e-47
-2.07219e-45
4.88501e-47
-2.28575e-45
5.83488e-47
-2.3545e-45
-9.51034e-48
-4.28185e-45
7.37406e-47
2.20185e-45
2.25743e-46
6.41475e-45
1.43981e-46
-2.06439e-45
-1.93296e-47
-4.26648e-45
1.37707e-47
2.0722e-45
9.34282e-47
2.20233e-45
4.86741e-47
7.60957e-47
1.885e-48
7.5635e-48
1.75914e-49
2.32815e-49
5.78433e-51
1.36217e-50
3.26861e-52
3.86401e-52
9.675e-54
1.65882e-53
4.05785e-55
4.35995e-55
2.19324e-56
1.46464e-56
4.06146e-55
-1.4657e-56
9.68559e-54
-4.36351e-55
3.27256e-52
-1.66028e-53
5.7936e-51
-3.86822e-52
1.76231e-49
-1.36379e-50
1.89046e-48
-2.33184e-49
4.88443e-47
-7.57673e-48
9.51366e-47
-7.63148e-47
6.05482e-47
-2.20966e-45
2.50723e-47
-2.14071e-45
6.05482e-47
2.14071e-45
9.51366e-47
2.20966e-45
4.88436e-47
7.63145e-47
1.87592e-48
7.56712e-48
-3.2037e-49
-1.31551e-49
-8.4448e-48
-8.27162e-48
-2.62989e-46
-2.93929e-46
-2.59465e-45
-4.88133e-45
-7.10206e-44
-1.62394e-43
-6.84831e-44
-1.56597e-42
7.06433e-44
-4.83161e-41
-1.29454e-42
-4.72957e-46
-3.10223e-43
4.50079e-46
-3.23747e-44
6.38973e-47
-2.55399e-44
1.77712e-47
-9.49602e-46
1.16139e-48
8.44572e-47
1.26859e-47
1.68143e-46
6.68863e-48
-8.12775e-47
2.6177e-48
-8.99969e-47
-1.64123e-48
-9.28483e-47
-1.38256e-47
-1.67955e-46
-4.92613e-48
8.65077e-47
1.60403e-47
2.51598e-46
7.5502e-48
-8.07981e-47
-9.74839e-48
-1.67316e-46
-3.86552e-48
8.1123e-47
4.84178e-48
8.65285e-47
2.6079e-48
3.16044e-48
1.00886e-49
3.14284e-49
9.59446e-51
1.00762e-50
3.14228e-52
5.85183e-52
1.77907e-53
1.70919e-53
5.23061e-55
7.26744e-55
2.17777e-56
1.9501e-56
1.16638e-57
6.48384e-58
2.17966e-56
-6.48856e-58
5.23625e-55
-1.95169e-56
1.78119e-53
-7.27393e-55
3.14729e-52
-1.71107e-53
9.61172e-51
-5.8589e-52
1.01182e-49
-1.00926e-50
2.61718e-48
-3.14852e-49
4.93304e-48
-3.16993e-48
-1.35914e-48
-8.68326e-47
-7.53371e-48
-8.3968e-47
-1.35915e-48
8.3968e-47
4.93266e-48
8.68325e-47
2.60284e-48
3.16327e-48
-2.30893e-49
1.2737e-49
-1.16745e-47
-7.33145e-48
-1.97837e-46
-1.6595e-46
-6.41737e-45
-6.15038e-45
-6.35249e-44
-1.02333e-43
-1.841e-42
-3.62293e-42
-1.7797e-42
-3.58757e-41
1.82755e-42
-1.20623e-39
-3.00647e-41
-1.07556e-44
-7.34751e-42
1.16336e-44
-5.17063e-43
1.31503e-45
-3.62719e-43
5.52444e-46
-1.23677e-44
2.10354e-47
-1.15937e-45
2.48143e-48
-2.68666e-47
3.44663e-49
-6.35781e-48
1.00304e-49
-4.81271e-48
-9.59324e-50
-4.90645e-48
-6.06647e-49
-8.87416e-48
-2.46032e-49
4.56975e-48
6.19359e-49
1.32932e-47
2.77125e-49
-4.26947e-48
-4.22238e-49
-8.83976e-48
-1.76301e-49
4.28692e-48
1.7695e-49
4.57086e-48
9.63219e-50
1.66562e-49
3.86759e-51
1.68832e-50
3.65761e-52
5.39674e-52
1.23096e-53
3.13957e-53
6.90271e-55
9.11939e-55
2.06853e-56
3.84877e-56
8.51918e-58
1.02454e-57
4.62036e-59
3.36456e-59
8.52661e-58
-3.36694e-59
2.07076e-56
-1.02536e-57
6.91099e-55
-3.85214e-56
1.23295e-53
-9.12929e-55
3.66431e-52
-3.14331e-53
3.87921e-51
-5.40547e-52
9.66753e-50
-1.69136e-50
1.8045e-49
-1.6707e-49
-8.38718e-50
-4.5872e-48
-3.42347e-49
-4.43654e-48
-8.40576e-50
4.43649e-48
1.75125e-49
4.5858e-48
-1.03493e-49
1.09444e-49
-4.61972e-48
-1.60098e-48
-1.61427e-46
-6.2745e-47
-2.76491e-45
-1.43205e-45
-8.92963e-44
-5.28198e-44
-9.22444e-43
-9.15989e-43
-2.66078e-41
-3.26462e-41
-2.57483e-41
-3.7528e-40
2.61719e-41
-1.24844e-38
-3.24631e-40
-1.04893e-43
-8.48864e-41
2.13566e-43
-1.10923e-41
3.28226e-44
-9.34427e-42
1.44763e-44
-2.94241e-43
5.23822e-46
-2.75837e-44
4.89168e-47
-7.98438e-46
1.55021e-48
-4.63781e-47
9.189e-50
-1.43769e-48
-2.24058e-51
-2.37241e-49
-2.82183e-50
-3.30834e-49
-1.18324e-50
1.698e-49
2.79502e-50
4.93465e-49
1.23129e-50
-1.58251e-49
-1.96586e-50
-3.28121e-49
-8.30571e-51
1.5892e-49
7.85642e-51
1.69893e-49
4.28545e-51
6.42795e-51
1.71676e-52
6.47026e-52
1.62566e-53
2.12587e-53
5.45041e-55
1.22355e-54
3.03379e-56
3.62266e-56
9.03815e-58
1.511e-57
3.67619e-59
4.07272e-59
1.97795e-60
1.32129e-60
3.67932e-59
-1.32222e-60
9.04772e-58
-4.07596e-59
3.03737e-56
-1.51232e-57
5.45908e-55
-3.62659e-56
1.62861e-53
-1.22502e-54
1.7219e-52
-2.12934e-53
4.30116e-51
-6.48214e-52
8.01172e-51
-6.44799e-51
-4.19569e-51
-1.70519e-49
-1.62099e-50
-1.64713e-49
-7.91468e-51
1.64027e-49
-9.79871e-50
1.4837e-49
-4.1124e-48
-9.36814e-49
-9.47243e-47
-2.63616e-47
-3.45874e-45
-1.07163e-45
-5.93611e-44
-2.44373e-44
-2.04167e-42
-9.62877e-43
-2.15186e-41
-1.69598e-41
-6.79377e-40
-6.70614e-40
-6.59663e-40
-8.48858e-39
6.67177e-40
-3.27598e-37
-7.60777e-39
1.51451e-42
-1.98724e-39
7.01746e-42
-1.2282e-40
5.59059e-43
-8.45944e-41
1.99165e-43
-2.63925e-42
7.14201e-45
-2.1563e-43
6.35826e-46
-6.20195e-45
2.00566e-47
-3.40821e-46
1.12705e-48
-9.34291e-48
3.24118e-50
-4.05914e-49
3.93102e-52
-2.72257e-50
-3.77145e-52
8.38302e-51
9.67041e-52
2.53898e-50
4.24469e-52
-8.14605e-51
-6.83253e-52
-1.68883e-50
-2.89839e-52
8.18021e-51
2.70421e-52
8.74367e-51
1.47959e-52
3.30149e-52
6.08108e-54
3.32684e-53
5.70004e-55
1.08976e-54
1.94655e-56
6.2242e-56
1.0701e-57
1.83349e-57
3.2264e-59
7.55217e-59
1.29525e-60
2.02087e-60
7.01486e-62
6.45788e-62
1.29635e-60
-6.46231e-62
3.22979e-59
-2.02244e-60
1.07136e-57
-7.55864e-59
1.94963e-56
-1.83544e-57
5.71035e-55
-6.23156e-56
6.09918e-54
-1.09152e-54
1.48496e-52
-3.3329e-53
2.75419e-52
-3.31185e-52
-1.70232e-52
-8.77628e-51
-1.3034e-51
-8.49338e-51
-3.04124e-50
7.73321e-51
-8.58797e-49
-1.56868e-50
-3.29528e-47
-1.05023e-48
-7.66498e-46
-2.92916e-47
-2.77764e-44
-1.20511e-45
-4.96803e-43
-2.77892e-44
-1.71085e-41
-1.14888e-42
-2.03067e-40
-2.54728e-41
-6.41601e-39
-1.31553e-39
-6.23601e-39
-4.47403e-38
6.1409e-39
-1.70357e-36
-4.38631e-38
-9.27422e-41
-3.13581e-43
-7.30093e-40
-3.82181e-42
-9.74505e-40
-1.61287e-40
-1.35153e-37
-1.54244e-40
-1.01439e-49
3.19673e-40
1.35153e-37
3.19673e-40
9.74505e-40
-1.54244e-40
7.30095e-40
-1.61287e-40
9.26384e-41
-3.82204e-42
2.2115e-42
-3.11028e-43
1.63623e-43
-7.38859e-45
3.76914e-45
-4.05189e-46
-3.76914e-45
-1.90227e-47
-1.63623e-43
-4.05189e-46
-2.2115e-42
-7.38859e-45
-9.26386e-41
-3.11029e-43
-7.30099e-40
-3.82204e-42
-9.74668e-40
-1.61288e-40
-1.35155e-37
-1.54252e-40
-9.28022e-41
3.19361e-40
1.3442e-37
3.15843e-40
-9.28022e-41
-3.15843e-40
-1.35155e-37
-3.19361e-40
-9.74668e-40
1.54252e-40
-7.30099e-40
1.61288e-40
-9.26386e-41
3.82204e-42
-2.21171e-42
3.11028e-43
-1.67611e-43
7.37907e-45
-1.67811e-43
-3.91161e-49
-2.21548e-42
-7.38818e-45
-9.27982e-41
-3.11424e-43
-7.32147e-40
-3.82903e-42
-1.06509e-39
-1.61592e-40
-1.35792e-37
-1.57762e-40
-3.34996e-40
1.61903e-40
3.34996e-40
3.23198e-40
1.35792e-37
1.61903e-40
1.06494e-39
-1.57763e-40
7.31145e-40
-1.61596e-40
-4.07387e-42
-3.73009e-42
3.08774e-43
-3.2986e-41
4.0301e-42
-1.15075e-39
1.69264e-40
-2.21697e-39
1.61825e-40
-3.75281e-51
-3.35449e-40
2.21697e-39
-3.35449e-40
1.15075e-39
1.61825e-40
3.29862e-41
1.69264e-40
3.72678e-42
4.03045e-42
1.03141e-43
3.21633e-43
7.21572e-45
7.63134e-45
1.83119e-46
4.13992e-46
-1.83119e-46
1.9402e-47
-7.21573e-45
4.13992e-46
-1.03142e-43
7.63135e-45
-3.72679e-42
3.21633e-43
-3.29863e-41
4.03046e-42
-1.15075e-39
1.69265e-40
-2.21707e-39
1.61833e-40
-3.73401e-42
-3.35127e-40
2.18388e-39
-3.31411e-40
-3.73401e-42
3.31411e-40
-2.21707e-39
3.35127e-40
-1.15075e-39
-1.61833e-40
-3.29863e-41
-1.69265e-40
-3.72679e-42
-4.03046e-42
-1.03152e-43
-3.21633e-43
-7.40917e-45
-7.62163e-45
-7.41851e-45
3.96504e-49
-1.03335e-43
7.63094e-45
-3.73381e-42
3.22037e-43
-3.30823e-41
4.03767e-42
-1.15438e-39
1.69579e-40
-2.24632e-39
1.65541e-40
-1.12139e-39
-1.69901e-40
1.12139e-39
-3.39172e-40
2.24632e-39
-1.69901e-40
1.15437e-39
1.65541e-40
3.30189e-41
1.69575e-40
3.42592e-42
-3.80106e-43
1.46732e-44
-1.42079e-42
1.9884e-43
-2.62362e-41
7.03562e-42
-4.9676e-41
6.66749e-42
-1.12611e-51
-1.39177e-41
4.9676e-41
-1.39177e-41
2.62362e-41
6.66749e-42
1.42079e-42
7.03562e-42
3.79107e-43
1.98857e-43
1.12066e-44
1.5363e-44
9.51688e-46
4.01801e-46
2.42813e-47
2.12427e-47
-2.42813e-47
1.06584e-48
-9.51689e-46
2.12427e-47
-1.12066e-44
4.01801e-46
-3.79108e-43
1.5363e-44
-1.42081e-42
1.98858e-43
-2.62372e-41
7.03564e-42
-4.96872e-41
6.66789e-42
-3.8006e-43
-1.39024e-41
4.8244e-41
-1.37185e-41
-3.8006e-43
1.37185e-41
-4.96872e-41
1.39024e-41
-2.62372e-41
-6.66789e-42
-1.42081e-42
-7.03564e-42
-3.79108e-43
-1.98858e-43
-1.1208e-44
-1.5363e-44
-9.77444e-46
-4.01267e-46
-9.78778e-46
2.13462e-50
-1.12323e-44
4.01779e-46
-3.80034e-43
1.53836e-44
-1.43107e-42
1.99239e-43
-2.6605e-41
7.0506e-42
-5.07279e-41
6.85136e-42
-2.51842e-41
-7.06601e-42
2.51842e-41
-1.4102e-41
5.07279e-41
-7.06601e-42
2.66052e-41
6.85138e-42
1.43413e-42
7.05041e-42
1.68973e-43
-1.48368e-44
1.79764e-45
-4.18641e-44
2.06221e-44
-4.63924e-43
7.24177e-43
-8.59251e-43
6.86546e-43
-5.54577e-53
-1.43328e-42
8.59251e-43
-1.43328e-42
4.63924e-43
6.86546e-43
4.18636e-44
7.24177e-43
1.47915e-44
2.06252e-44
4.82458e-46
1.87973e-45
4.13859e-47
4.94516e-47
1.12622e-48
2.78747e-48
-1.12623e-48
1.38997e-49
-4.1386e-47
2.78747e-48
-4.8246e-46
4.94516e-47
-1.47916e-44
1.87973e-45
-4.18648e-44
2.06253e-44
-4.63965e-43
7.2418e-43
-8.59734e-43
6.86596e-43
-1.4833e-44
-1.4314e-42
8.16903e-43
-1.41261e-42
-1.4833e-44
1.41261e-42
-8.59734e-43
1.4314e-42
-4.63965e-43
-6.86596e-43
-4.18648e-44
-7.2418e-43
-1.47916e-44
-2.06253e-44
-4.82525e-46
-1.87973e-45
-4.25802e-47
-4.9382e-47
-4.26414e-47
2.84715e-51
-4.83651e-46
4.94487e-47
-1.48318e-44
1.88244e-45
-4.23058e-44
2.06719e-44
-4.78273e-43
7.2601e-43
-8.86765e-43
7.05338e-43
-4.36409e-43
-7.27896e-43
4.36409e-43
-1.45212e-42
8.86765e-43
-7.27896e-43
4.78288e-43
7.05338e-43
4.25061e-44
7.25971e-43
1.71335e-44
-1.01884e-45
8.01581e-47
-2.12082e-45
9.14808e-46
-5.46696e-45
2.93991e-44
-8.48178e-45
2.77306e-44
-5.10954e-54
-5.81313e-44
8.48178e-45
-5.81313e-44
5.46696e-45
2.77306e-44
2.12075e-45
2.93991e-44
1.01487e-45
9.14957e-46
3.34244e-47
8.40587e-47
3.05448e-48
2.3548e-48
8.28045e-50
1.31769e-49
-8.28047e-50
6.87545e-51
-3.05449e-48
1.31769e-49
-3.34245e-47
2.35481e-48
-1.01488e-45
8.40588e-47
-2.12084e-45
9.14961e-46
-5.47002e-45
2.93993e-44
-8.5153e-45
2.7733e-44
-1.01793e-45
-5.80471e-44
6.32752e-45
-5.72139e-44
-1.01793e-45
5.72139e-44
-8.5153e-45
5.80471e-44
-5.47002e-45
-2.7733e-44
-2.12084e-45
-2.93993e-44
-1.01488e-45
-9.14961e-46
-3.34294e-47
-8.40587e-47
-3.1424e-48
-2.35136e-48
-3.14701e-48
1.39255e-52
-3.35122e-47
2.35466e-48
-1.01785e-45
8.41868e-47
-2.15121e-45
9.17184e-46
-6.45138e-45
2.9481e-44
-9.61812e-45
2.85638e-44
-4.33063e-45
-2.95653e-44
4.33063e-45
-5.89666e-44
9.61818e-45
-2.95653e-44
6.45374e-45
2.85638e-44
2.17513e-45
2.94789e-44
7.58151e-46
-3.94415e-47
5.75768e-48
-7.59057e-47
6.16845e-47
-1.94483e-47
1.98573e-45
3.78387e-47
1.87391e-45
-2.29723e-55
-3.92754e-45
-3.78387e-47
-3.92754e-45
1.94481e-47
1.87391e-45
7.59027e-47
1.98573e-45
3.92744e-47
6.16974e-47
1.37033e-48
6.02258e-48
1.25333e-49
1.68344e-49
3.54359e-51
9.61676e-51
-3.5436e-51
4.98485e-52
-1.25334e-49
9.61677e-51
-1.37033e-48
1.68344e-49
-3.92746e-47
6.02259e-48
-7.59065e-47
6.16976e-47
-1.95736e-47
1.98574e-45
3.64647e-47
1.87408e-45
-3.93999e-47
-3.92151e-45
-1.15116e-46
-3.86567e-45
-3.93999e-47
3.86567e-45
3.64647e-47
3.92151e-45
-1.95736e-47
-1.87408e-45
-7.59065e-47
-1.98574e-45
-3.92746e-47
-6.16976e-47
-1.37054e-48
-6.02258e-48
-1.29094e-49
-1.68094e-49
-1.2929e-49
1.01199e-53
-1.37408e-48
1.68334e-49
-3.93962e-47
6.03194e-48
-7.71512e-47
6.18564e-47
-5.74739e-47
1.9916e-45
-3.81231e-50
1.92974e-45
1.84288e-47
-1.99764e-45
-1.84287e-47
-3.98353e-45
4.11665e-50
-1.99764e-45
5.7585e-47
1.92974e-45
7.82398e-47
1.99143e-45
5.05849e-47
-2.11375e-48
9.26279e-49
-3.93447e-48
2.53457e-48
3.09151e-48
7.80368e-47
9.89329e-48
7.33912e-47
1.76576e-56
-1.5425e-46
-9.89329e-48
-1.5425e-46
-3.09151e-48
7.33913e-47
3.93389e-48
7.8038e-47
2.10461e-48
2.56318e-48
7.33442e-50
2.50132e-49
6.83888e-51
7.28613e-51
1.92508e-52
4.12654e-52
-1.92509e-52
2.20422e-53
-6.8389e-51
4.12654e-52
-7.33445e-50
7.28614e-51
-2.10462e-48
2.50133e-49
-3.9341e-48
2.56319e-48
3.08466e-48
7.80385e-47
9.81974e-48
7.33986e-47
-2.11146e-48
-1.54e-46
-1.39007e-47
-1.5168e-46
-2.11146e-48
1.5168e-46
9.81974e-48
1.54e-46
3.08466e-48
-7.33986e-47
-3.9341e-48
-7.80385e-47
-2.10462e-48
-2.56319e-48
-7.33557e-50
-2.50132e-49
-7.04322e-51
-7.2751e-51
-7.05386e-51
4.42383e-55
-7.35482e-50
7.28568e-51
-2.11126e-48
2.50533e-49
-4.00059e-48
2.57006e-48
1.0536e-48
7.82813e-47
7.99731e-48
7.57112e-47
4.98749e-48
-7.85322e-47
-4.98749e-48
-1.56577e-46
-7.99711e-48
-7.85322e-47
-1.04632e-48
7.5711e-47
4.06903e-48
7.82734e-47
2.10224e-48
-4.57361e-50
4.02177e-48
-1.47676e-49
-4.06734e-49
1.44841e-49
4.09657e-48
4.21949e-49
3.87726e-48
7.40311e-55
-8.14941e-48
-4.21932e-49
-8.14939e-48
-1.44436e-49
3.87803e-48
1.43823e-49
4.12242e-48
7.77399e-50
1.35084e-49
2.81224e-51
1.34423e-50
2.60564e-52
3.90293e-52
7.54542e-54
2.21426e-53
-7.54544e-54
1.17607e-54
-2.60565e-52
2.21426e-53
-2.81226e-51
3.90294e-52
-7.77403e-50
1.34423e-50
-1.43831e-49
1.35085e-49
1.44175e-49
4.12244e-48
4.19112e-49
3.87842e-48
-7.80009e-50
-8.13593e-48
-5.68576e-49
-8.01391e-48
-7.80009e-50
8.01391e-48
4.19112e-49
8.13593e-48
1.44175e-49
-3.87842e-48
-1.43831e-49
-4.12244e-48
-7.77403e-50
-1.35085e-49
-2.81269e-51
-1.34423e-50
-2.68569e-52
-3.89705e-52
-2.6898e-52
2.34287e-56
-2.82024e-51
3.90269e-52
-7.79929e-50
1.34639e-50
-1.46383e-49
1.35453e-49
6.92549e-50
4.13549e-48
3.53289e-49
4.00004e-48
2.13078e-49
-4.14898e-48
-2.13078e-49
-8.27177e-48
-3.53281e-49
-4.14898e-48
-6.89591e-50
4.00002e-48
1.49161e-49
4.13503e-48
1.10419e-49
3.15426e-48
5.022e-46
-2.02771e-49
-2.10548e-47
2.32958e-50
-8.91212e-49
2.01952e-50
1.19532e-49
2.47167e-53
-3.03519e-49
-1.95591e-50
-3.02821e-49
-6.84058e-51
1.43809e-49
6.3856e-51
1.53251e-49
3.45878e-51
5.21426e-51
1.24831e-52
5.14909e-52
1.15817e-53
1.53737e-53
3.34235e-55
8.62046e-55
-3.34236e-55
4.67028e-56
-1.15817e-53
8.62046e-55
-1.24831e-52
1.53738e-53
-3.45879e-51
5.1491e-52
-6.38596e-51
5.21428e-51
6.829e-51
1.53252e-49
1.94347e-50
1.43824e-49
-3.47038e-51
-3.0229e-49
-2.60707e-50
-2.97576e-49
-3.47038e-51
2.97576e-49
1.94347e-50
3.0229e-49
6.829e-51
-1.43824e-49
-6.38596e-51
-1.53252e-49
-3.4588e-51
-5.21428e-51
-1.2485e-52
-5.14909e-52
-1.1936e-53
-1.53504e-53
-1.19541e-53
9.18135e-58
-1.25185e-52
1.53728e-53
-3.47002e-51
5.15746e-52
-6.49919e-51
5.22879e-51
3.49541e-51
1.53752e-49
1.65195e-50
1.48523e-49
9.88101e-51
-1.54268e-49
-9.881e-51
-3.07534e-49
-1.65191e-50
-1.54268e-49
-3.48114e-51
1.48522e-49
6.63291e-51
1.53733e-49
4.27198e-51
2.63919e-46
-1.00632e-45
1.07332e-47
-4.15364e-47
4.04052e-49
-1.64104e-48
1.46672e-50
-3.03203e-50
3.88962e-52
-1.67216e-50
-6.6828e-52
-1.5609e-50
-2.38817e-52
7.40168e-51
2.1986e-52
7.88721e-51
1.19422e-52
2.67811e-52
4.42228e-54
2.6476e-53
4.05859e-55
7.88076e-55
1.19444e-56
4.38411e-56
-1.19444e-56
2.36331e-57
-4.0586e-55
4.38411e-56
-4.4223e-54
7.88077e-55
-1.19423e-52
2.64761e-53
-2.19866e-52
2.67812e-52
2.38687e-52
7.88726e-51
6.75381e-52
7.4031e-51
-1.19829e-52
-1.55581e-50
-9.04104e-52
-1.53161e-50
-1.19829e-52
1.53161e-50
6.75381e-52
1.55581e-50
2.38687e-52
-7.4031e-51
-2.19866e-52
-7.88726e-51
-1.19423e-52
-2.67812e-52
-4.42297e-54
-2.6476e-53
-4.18515e-55
-7.86893e-55
-4.19152e-55
4.58721e-59
-4.43492e-54
7.88029e-55
-1.19816e-52
2.65187e-53
-2.23882e-52
2.68556e-52
1.23699e-52
7.91295e-51
5.75357e-52
7.64439e-51
3.43553e-52
-7.93951e-51
-3.43552e-52
-1.58275e-50
-5.75342e-52
-7.93951e-51
-1.2318e-52
7.64435e-51
2.28804e-52
7.91194e-51
2.19484e-52
4.99226e-40
-2.2318e-38
3.71259e-40
-4.62997e-39
2.82805e-41
-4.25267e-39
9.41238e-42
-1.14305e-40
3.09454e-43
-9.31843e-42
2.7487e-44
-2.4604e-43
8.15773e-46
-1.36394e-44
4.60921e-47
-3.52808e-46
1.27401e-48
-1.51595e-47
5.42647e-50
-3.77276e-49
1.38495e-51
-1.31144e-50
8.96026e-53
2.34177e-52
1.91825e-53
-1.85184e-52
-2.90396e-53
-3.64919e-52
-1.23369e-53
1.76493e-52
1.14777e-53
1.88998e-52
6.27793e-54
7.31987e-54
2.56337e-55
7.35885e-55
2.38132e-56
2.45647e-56
8.07227e-58
1.39336e-57
4.37403e-59
4.15723e-59
1.30682e-60
1.6966e-60
5.15447e-62
4.57368e-62
2.76037e-63
1.44602e-63
5.15598e-62
-1.44697e-63
1.30671e-60
-4.57706e-62
4.37119e-59
-1.69796e-60
8.0472e-58
-4.16119e-59
2.36637e-56
-1.39476e-57
2.4885e-55
-2.45924e-56
5.9067e-54
-7.36639e-55
-3.3242e-54
-7.31687e-54
-6.81526e-52
-1.88511e-52
-2.24793e-50
-1.36158e-52
-9.52308e-49
2.18451e-51
-2.69641e-47
6.91627e-50
-1.08732e-45
2.74558e-48
-2.52926e-44
8.08325e-47
-9.80997e-43
2.92955e-45
-1.76941e-41
5.66663e-44
-6.72855e-40
1.87373e-43
-8.25769e-39
-2.34114e-40
-3.0848e-37
-2.55911e-38
-3.00612e-37
-2.03371e-36
3.01392e-37
-8.94414e-37
-2.04143e-36
3.00807e-37
5.12837e-38
-3.01771e-38
3.09643e-38
-2.21086e-38
1.00457e-39
-4.3887e-39
1.25985e-40
-1.13719e-40
3.87521e-42
-9.09944e-42
2.85815e-43
-2.39346e-43
8.39564e-45
-1.327e-44
4.44545e-46
-3.42709e-46
1.23681e-47
-1.47334e-47
5.15268e-49
-3.65902e-49
1.34959e-50
-1.29153e-50
4.66907e-52
-2.90687e-52
1.18055e-53
-1.37597e-53
-2.39206e-55
-9.7298e-54
-2.37812e-55
4.6045e-54
2.28209e-55
4.93562e-54
1.24956e-55
1.90315e-55
5.19552e-57
1.88239e-56
4.78566e-58
6.24517e-58
1.64302e-59
3.47303e-59
8.80272e-61
1.02747e-60
2.64953e-62
4.10421e-62
1.03181e-63
1.09451e-63
5.54961e-65
3.3852e-65
1.03751e-63
-3.38488e-65
2.67804e-62
-1.09388e-63
8.9506e-61
-4.09932e-62
1.71205e-59
-1.02412e-60
5.1243e-58
-3.4537e-59
6.64736e-57
-6.14194e-58
1.91858e-55
-1.83012e-56
2.81164e-54
-1.66516e-55
1.11241e-52
-3.83845e-54
3.79428e-51
3.89634e-53
1.53458e-49
1.86774e-51
4.48602e-48
6.43437e-50
1.70776e-46
2.55635e-48
4.13645e-45
7.55296e-47
1.49627e-43
2.73821e-45
2.83618e-42
5.4483e-44
9.90756e-41
3.62913e-43
1.29199e-39
-1.96956e-40
4.3344e-38
-2.19152e-38
6.97546e-38
-1.75761e-36
1.38772e-38
-4.29045e-34
-1.76527e-36
-1.35954e-38
7.07224e-36
-3.68863e-36
6.00992e-38
-3.11561e-38
4.42146e-38
3.69669e-39
5.71545e-39
1.06774e-40
1.53405e-40
9.06755e-42
1.15681e-41
2.39671e-43
3.12715e-43
1.33039e-44
1.68501e-44
3.4358e-46
4.42486e-46
1.47659e-47
1.86928e-47
3.66646e-49
4.69e-49
1.29435e-50
1.63738e-50
3.05812e-52
3.89002e-52
9.09038e-54
1.15919e-53
1.23973e-56
2.53985e-55
9.83247e-56
1.20213e-56
9.98005e-56
3.01822e-57
3.92349e-57
1.22107e-58
3.83218e-58
1.0821e-59
1.28865e-59
3.67927e-61
7.06851e-61
1.92701e-62
2.10741e-62
5.74391e-64
8.2977e-64
2.1905e-65
2.21882e-65
2.62564e-66
6.757e-67
1.04976e-64
-7.05355e-67
5.00939e-63
-2.38741e-65
2.52404e-61
-9.26056e-64
1.17301e-59
-2.61776e-62
5.64252e-58
-9.77909e-61
2.45821e-56
-2.59833e-59
1.10725e-54
-1.03034e-57
4.38356e-53
-3.21862e-56
1.83499e-51
-1.40021e-54
6.44824e-50
-5.08477e-53
2.50694e-48
-2.17824e-51
7.64207e-47
-7.47417e-50
2.76706e-45
-2.99845e-48
7.09421e-44
-8.76874e-47
2.40704e-42
-3.20015e-45
4.93452e-41
-5.95646e-44
1.58693e-39
4.21767e-44
2.32966e-38
2.8768e-40
6.99571e-37
3.10364e-38
7.02449e-37
2.46179e-36
6.53092e-36
4.78519e-34
2.46919e-36
-5.68745e-37
5.6398e-38
-2.21984e-38
2.57073e-38
-1.38782e-38
8.79739e-40
3.99912e-39
1.14521e-40
1.11559e-40
3.59158e-42
9.2861e-42
2.69086e-43
2.45624e-43
7.97917e-45
1.36257e-44
4.25968e-46
3.52484e-46
1.1917e-47
1.51465e-47
4.98959e-49
3.76599e-49
1.31165e-50
1.3293e-50
4.54498e-52
3.14116e-52
1.11913e-53
9.43784e-54
3.31706e-55
2.06125e-55
7.53236e-57
7.65512e-57
2.9704e-58
2.40663e-57
5.83742e-59
9.23962e-59
2.36558e-60
8.6524e-60
2.04168e-61
2.88525e-61
6.9931e-63
1.54537e-62
3.59879e-64
4.56646e-64
1.07629e-65
1.75766e-65
4.02709e-67
4.64873e-67
-2.8908e-69
1.34184e-68
-1.10606e-66
-4.06098e-68
-6.83854e-65
-2.01861e-66
-4.25906e-63
-1.06326e-64
-2.09863e-61
-5.17648e-63
-1.17162e-59
-2.65692e-61
-4.93935e-58
-1.24113e-59
-2.57492e-56
-6.05743e-58
-9.4039e-55
-2.62394e-56
-4.64945e-53
-1.20018e-54
-1.45779e-51
-4.69052e-53
-6.89367e-50
-2.00178e-51
-1.81423e-48
-6.89832e-50
-8.27626e-47
-2.74788e-48
-1.76364e-45
-8.083e-47
-7.8625e-44
-2.92135e-45
-1.28087e-42
-5.45844e-44
-5.69797e-41
1.02389e-43
-6.21321e-40
2.6831e-40
-2.78536e-38
2.88554e-38
3.15034e-40
2.27792e-36
8.33026e-38
1.32246e-36
2.28556e-36
5.5798e-38
3.13969e-39
-1.82011e-38
-2.3417e-39
-3.81209e-40
-3.65203e-41
7.76744e-41
3.45734e-42
2.64117e-42
1.61529e-43
2.24992e-43
1.87673e-44
6.57003e-45
5.98094e-46
3.64139e-46
3.63916e-47
1.00548e-47
1.03799e-48
4.29556e-49
4.57841e-50
1.11925e-50
1.2039e-51
3.92414e-52
4.25205e-53
9.60363e-54
1.03748e-54
2.86778e-55
3.0821e-56
6.4879e-57
6.96752e-58
2.11547e-58
2.0024e-59
4.6837e-59
1.49206e-60
1.80213e-60
5.49734e-62
1.63546e-61
4.22026e-63
5.49761e-63
1.41755e-64
2.88905e-64
7.05123e-66
8.56944e-66
2.08259e-67
3.24064e-67
-1.39935e-69
8.56912e-69
-5.22425e-67
5.58089e-70
-3.05786e-65
1.90737e-68
-1.61709e-63
1.11135e-66
-8.82245e-62
6.52489e-65
-4.22528e-60
3.45298e-63
-2.15414e-58
1.88803e-61
-9.26142e-57
9.02715e-60
-4.42348e-55
4.6127e-58
-1.68672e-53
1.9761e-56
-7.57218e-52
9.46835e-55
-2.51799e-50
3.59006e-53
-1.06735e-48
1.61947e-51
-3.02176e-47
5.33978e-50
-1.21787e-45
2.28045e-48
-2.83241e-44
6.37635e-47
-1.0979e-42
2.60316e-45
-1.97963e-41
5.9921e-44
-7.52273e-40
2.42403e-42
-9.22684e-39
4.99154e-41
-3.44445e-37
2.38263e-39
-3.35684e-37
6.83937e-38
3.36481e-37
2.60412e-36
6.85861e-38
3.3603e-37
6.03278e-41
-2.29844e-39
-5.48989e-41
-4.53988e-41
-1.16938e-42
2.52371e-42
4.65194e-44
1.16049e-43
3.0351e-45
1.5052e-44
3.98233e-46
4.66537e-46
1.3784e-47
2.93498e-47
8.49424e-49
8.24555e-49
2.55226e-50
3.7026e-50
1.12434e-51
9.65318e-52
3.06871e-53
3.44653e-53
1.0791e-54
8.36849e-55
2.70701e-56
2.50366e-56
8.00387e-58
5.64456e-58
1.84942e-59
1.5468e-59
5.10632e-61
1.19347e-60
2.9709e-62
4.21099e-62
1.05294e-63
3.37298e-63
7.51514e-65
1.11358e-64
2.51614e-66
5.6497e-66
1.21844e-67
1.65744e-67
3.5996e-69
6.11026e-69
3.44356e-70
1.70039e-70
1.26388e-68
6.66184e-70
7.37702e-67
4.15684e-68
3.94119e-65
2.40887e-66
2.13914e-63
1.40911e-64
1.03596e-61
7.43936e-63
5.23382e-60
4.05945e-61
2.27723e-58
1.93975e-59
1.0724e-56
9.89679e-58
4.1403e-55
4.24114e-56
1.82062e-53
2.02906e-54
6.12853e-52
7.69989e-53
2.52228e-50
3.46749e-51
7.21621e-49
1.14473e-49
2.78882e-47
4.87906e-48
6.52099e-46
1.36637e-46
2.37765e-44
5.5635e-45
4.25157e-43
1.27998e-43
1.46963e-41
5.13006e-42
1.7215e-40
1.01459e-40
5.44986e-39
4.61921e-39
5.29446e-39
1.16029e-37
-5.28677e-39
4.42365e-36
1.16071e-37
-5.31139e-39
4.4515e-42
-5.03861e-41
-4.50461e-42
-1.17564e-42
-1.02216e-43
3.13698e-44
-2.97301e-45
2.13169e-45
1.52318e-47
3.22849e-46
1.34842e-47
1.09126e-47
5.3628e-49
6.98594e-49
3.81556e-50
2.07069e-50
1.18065e-51
9.29686e-52
5.44618e-53
2.51688e-53
1.49291e-54
8.94627e-55
5.3224e-56
2.23297e-56
1.32686e-57
6.64484e-58
3.91615e-59
1.53052e-59
8.95002e-61
4.09036e-61
2.33703e-62
2.39806e-62
8.40253e-64
8.15394e-64
2.58148e-65
6.01774e-65
1.47919e-66
1.98146e-66
4.74982e-68
9.76826e-68
2.17811e-69
2.86302e-69
2.95198e-70
1.03358e-70
1.45847e-68
5.66654e-72
8.46169e-67
1.88712e-70
4.94681e-65
1.1859e-68
2.6166e-63
6.87158e-67
1.42615e-61
4.02215e-65
6.83304e-60
2.12318e-63
3.47931e-58
1.15949e-61
1.49678e-56
5.53928e-60
7.13759e-55
2.82907e-58
2.72376e-53
1.21199e-56
1.22026e-51
5.80592e-55
4.0616e-50
2.2024e-53
1.71713e-48
9.93543e-52
4.86668e-47
3.28135e-50
1.95479e-45
1.40706e-48
4.55157e-44
4.04966e-47
1.75652e-42
1.82028e-45
3.17043e-41
7.00209e-44
1.19768e-39
5.89871e-42
1.46937e-38
5.35555e-40
5.438e-37
4.9556e-38
5.30298e-37
3.63353e-36
-5.3019e-37
9.13663e-36
3.63223e-36
-5.30022e-37
9.64118e-44
-3.67618e-42
-9.83346e-44
-8.32069e-44
-2.51888e-45
-2.48993e-45
-9.90883e-47
1.34014e-48
-7.38018e-49
1.07321e-47
2.39601e-49
4.13329e-49
1.08181e-50
3.06578e-50
8.09907e-52
9.34443e-52
2.63436e-53
4.39281e-53
1.22402e-54
1.19458e-54
3.46371e-56
4.30456e-56
1.23284e-57
1.06848e-57
3.14185e-59
3.1743e-59
9.23361e-61