/*--------------------------------*- C++ -*----------------------------------*\
| =========                 |                                                 |
| \\      /  F ield         | OpenFOAM: The Open Source CFD Toolbox           |
|  \\    /   O peration     | Version:  2.4.0                                 |
|   \\  /    A nd           | Web:      www.OpenFOAM.org                      |
|    \\/     M anipulation  |                                                 |
\*---------------------------------------------------------------------------*/
FoamFile
{
    version     2.0;
    format      ascii;
    class       volVectorField;
    location    "0.1";
    object      U;
}
// * * * * * * * * * * * * * * * * * * * * * * * * * * * * * * * * * * * * * //

dimensions      [0 1 -1 0 0 0 0];

internalField   nonuniform List<vector> 
7700
(
(8.48013e-38 1.65106e-38 0)
(3.22294e-36 2.04423e-37 0)
(2.25409e-35 7.76841e-36 0)
(1.08104e-33 7.39189e-36 0)
(1.06165e-33 -1.5382e-35 0)
(-1.06164e-33 -1.53815e-35 0)
(-1.08095e-33 7.40913e-36 0)
(-1.92369e-35 7.98967e-36 0)
(2.25475e-35 8.17775e-36 0)
(1.10359e-33 1.51944e-35 0)
(2.14599e-33 -7.76797e-36 0)
(2.58511e-35 -2.27739e-35 0)
(-1.03579e-33 7.39189e-36 0)
(1.06496e-33 1.51603e-35 0)
(1.08113e-33 -7.40915e-36 0)
(2.25475e-35 -7.76887e-36 0)
(3.22319e-36 -2.04464e-37 0)
(8.07926e-38 -1.68014e-38 0)
(6.39564e-39 -4.38267e-40 0)
(1.66185e-40 -2.44387e-41 0)
(9.21644e-42 -6.27026e-43 0)
(2.36078e-43 -2.70636e-44 0)
(1.01612e-44 -6.68965e-46 0)
(2.59674e-46 -2.31391e-47 0)
(2.5987e-46 2.31559e-47 0)
(1.01699e-44 6.69506e-46 0)
(2.3632e-43 2.70867e-44 0)
(9.22635e-42 6.27671e-43 0)
(1.66411e-40 2.44651e-41 0)
(6.40462e-39 4.38867e-40 0)
(8.09496e-38 1.68252e-38 0)
(3.22942e-36 2.04878e-37 0)
(2.26218e-35 7.78524e-36 0)
(1.08427e-33 7.59677e-36 0)
(1.08427e-33 -7.59677e-36 0)
(2.26218e-35 -7.78524e-36 0)
(3.22942e-36 -2.04878e-37 0)
(8.09496e-38 -1.68252e-38 0)
(6.40462e-39 -4.38867e-40 0)
(1.66411e-40 -2.44651e-41 0)
(9.22635e-42 -6.27671e-43 0)
(2.36319e-43 -2.70877e-44 0)
(1.01619e-44 -7.00696e-46 0)
(3.67371e-47 -3.11505e-46 0)
(9.92092e-48 -7.95057e-45 0)
(2.23555e-46 -2.33471e-46 0)
(3.91256e-39 -7.99686e-39 0)
(1.29494e-37 -1.02602e-37 0)
(1.03391e-36 -3.90386e-36 0)
(3.55232e-35 -3.71475e-36 0)
(3.46153e-35 7.7298e-36 0)
(-3.4615e-35 7.72958e-36 0)
(-3.55192e-35 -3.72333e-36 0)
(-9.00612e-37 -4.01485e-36 0)
(1.0342e-36 -4.10932e-36 0)
(3.65574e-35 -7.63556e-36 0)
(7.02719e-35 3.90365e-36 0)
(1.16747e-36 1.14445e-35 0)
(-3.34478e-35 -3.71475e-36 0)
(3.47489e-35 -7.61861e-36 0)
(3.55273e-35 3.72334e-36 0)
(1.0342e-36 3.90409e-36 0)
(1.29508e-37 1.02624e-37 0)
(3.7864e-39 8.36189e-39 0)
(2.82265e-40 2.17483e-40 0)
(8.08121e-42 1.20715e-41 0)
(4.33339e-43 3.08902e-43 0)
(1.19009e-44 1.3298e-44 0)
(5.01855e-46 3.27975e-46 0)
(1.35255e-47 1.13267e-47 0)
(1.3536e-47 -1.13349e-47 0)
(5.02301e-46 -3.28239e-46 0)
(1.19135e-44 -1.33094e-44 0)
(4.33828e-43 -3.09218e-43 0)
(8.09261e-42 -1.20845e-41 0)
(2.82686e-40 -2.17779e-40 0)
(3.79405e-39 -8.37365e-39 0)
(1.29782e-37 -1.02829e-37 0)
(1.0377e-36 -3.91224e-36 0)
(3.5653e-35 -3.81758e-36 0)
(3.5653e-35 3.81758e-36 0)
(1.0377e-36 3.91224e-36 0)
(1.29782e-37 1.02829e-37 0)
(3.79405e-39 8.37365e-39 0)
(2.82686e-40 2.17779e-40 0)
(8.09261e-42 1.20845e-41 0)
(4.33827e-43 3.09217e-43 0)
(1.18904e-44 1.32815e-44 0)
(2.87867e-46 -5.44354e-46 0)
(-5.90056e-45 -7.98689e-45 0)
(2.82845e-47 -2.2733e-43 0)
(6.14169e-45 -6.47226e-45 0)
(4.42212e-40 -3.50944e-40 0)
(1.30499e-38 -4.76797e-39 0)
(3.69645e-38 -1.51795e-37 0)
(7.94352e-37 -1.42966e-37 0)
(7.7007e-37 2.9991e-37 0)
(-7.70031e-37 2.99899e-37 0)
(-7.93911e-37 -1.43346e-37 0)
(-2.351e-38 -1.56933e-37 0)
(3.70026e-38 -1.61343e-37 0)
(8.31354e-37 -2.95511e-37 0)
(1.57788e-36 1.51784e-37 0)
(5.04549e-38 4.42876e-37 0)
(-7.19613e-37 -1.42966e-37 0)
(7.83561e-37 -2.94761e-37 0)
(7.94793e-37 1.43347e-37 0)
(3.70026e-38 1.51806e-37 0)
(1.30508e-38 4.76899e-39 0)
(4.03689e-40 3.69164e-40 0)
(3.70533e-41 1.06046e-41 0)
(1.06966e-42 5.69153e-43 0)
(6.17031e-44 1.56283e-44 0)
(1.68139e-45 6.58978e-46 0)
(7.27163e-47 1.71579e-47 0)
(1.93028e-48 5.84536e-49 0)
(1.93176e-48 -5.84975e-49 0)
(7.278e-47 -1.71721e-47 0)
(1.68319e-45 -6.59563e-46 0)
(6.17739e-44 -1.56449e-44 0)
(1.07127e-42 -5.69795e-43 0)
(3.71133e-41 -1.06196e-41 0)
(4.04697e-40 -3.69717e-40 0)
(1.30868e-38 -4.77902e-39 0)
(3.73692e-38 -1.52165e-37 0)
(8.07438e-37 -1.47745e-37 0)
(8.07438e-37 1.47745e-37 0)
(3.73692e-38 1.52165e-37 0)
(1.30868e-38 4.77902e-39 0)
(4.04697e-40 3.69717e-40 0)
(3.71133e-41 1.06196e-41 0)
(1.07127e-42 5.69794e-43 0)
(6.17529e-44 1.56071e-44 0)
(1.02373e-45 2.75404e-47 0)
(-5.96261e-45 -1.97147e-44 0)
(-1.71468e-43 -1.80358e-43 0)
(7.5654e-46 -5.11307e-42 0)
(1.77627e-43 -1.4598e-43 0)
(1.90863e-41 -4.65441e-41 0)
(5.06746e-40 -5.26246e-40 0)
(9.64648e-40 -1.66804e-38 0)
(1.36758e-38 -1.57215e-38 0)
(1.32022e-38 3.29785e-38 0)
(-1.32005e-38 3.29771e-38 0)
(-1.36569e-38 -1.57717e-38 0)
(-4.40522e-40 -1.72557e-38 0)
(9.66308e-40 -1.77346e-38 0)
(1.46421e-38 -3.25011e-38 0)
(2.7402e-38 1.6679e-38 0)
(1.49033e-39 4.86999e-38 0)
(-1.17117e-38 -1.57215e-38 0)
(1.37278e-38 -3.24019e-38 0)
(1.36948e-38 1.57718e-38 0)
(9.66308e-40 1.66819e-38 0)
(5.06779e-40 5.26416e-40 0)
(1.73476e-41 4.88491e-41 0)
(1.60953e-42 1.41119e-42 0)
(4.9612e-44 8.14027e-44 0)
(2.84087e-45 2.21782e-45 0)
(8.11289e-47 9.59e-47 0)
(3.47611e-48 2.45917e-48 0)
(9.55224e-50 8.40356e-50 0)
(9.5597e-50 -8.40969e-50 0)
(3.47924e-48 -2.46118e-48 0)
(8.1218e-47 -9.59841e-47 0)
(2.84426e-45 -2.2202e-45 0)
(4.96896e-44 -8.14961e-44 0)
(1.61229e-42 -1.41331e-42 0)
(1.73944e-41 -4.89282e-41 0)
(5.08339e-40 -5.27745e-40 0)
(9.8204e-40 -1.67294e-38 0)
(1.41842e-38 -1.62492e-38 0)
(1.41842e-38 1.62492e-38 0)
(9.8204e-40 1.67294e-38 0)
(5.08339e-40 5.27745e-40 0)
(1.73944e-41 4.89282e-41 0)
(1.61229e-42 1.41331e-42 0)
(4.96611e-44 8.14681e-44 0)
(2.36644e-45 1.24408e-45 0)
(-1.48335e-44 -1.6064e-44 0)
(-1.3611e-43 -5.19688e-43 0)
(-3.85729e-42 -4.71276e-42 0)
(1.55687e-44 -1.39177e-40 0)
(3.98475e-42 -3.81353e-42 0)
(1.29797e-42 -2.85696e-42 0)
(3.47367e-41 -2.2828e-41 0)
(3.97184e-41 -6.5789e-40 0)
(1.26719e-40 -6.16371e-40 0)
(1.20639e-40 1.29918e-39 0)
(-1.20512e-40 1.29911e-39 0)
(-1.25405e-40 -6.18559e-40 0)
(-3.80671e-42 -6.82749e-40 0)
(3.98387e-41 -7.03462e-40 0)
(1.66556e-40 -1.27854e-39 0)
(2.83262e-40 6.57784e-40 0)
(7.57407e-41 1.91555e-39 0)
(-4.48906e-41 -6.16369e-40 0)
(1.56663e-40 -1.27422e-39 0)
(1.28034e-40 6.18562e-40 0)
(3.98387e-41 6.57919e-40 0)
(3.47157e-41 2.27754e-41 0)
(1.19401e-42 2.12409e-42 0)
(1.18633e-43 6.54943e-44 0)
(3.64573e-45 3.74942e-45 0)
(2.13456e-46 1.0706e-46 0)
(6.04814e-48 4.58627e-48 0)
(2.59803e-49 1.21785e-49 0)
(7.05807e-51 4.12366e-51 0)
(7.06347e-51 -4.12673e-51 0)
(2.60032e-49 -1.21887e-49 0)
(6.05472e-48 -4.5904e-48 0)
(2.13709e-46 -1.07178e-46 0)
(3.65152e-45 -3.75388e-45 0)
(1.18841e-43 -6.55968e-44 0)
(1.19745e-42 -2.12773e-42 0)
(3.48307e-41 -2.28371e-41 0)
(4.09137e-41 -6.59977e-40 0)
(1.61548e-40 -6.39206e-40 0)
(1.61548e-40 6.39206e-40 0)
(4.09137e-41 6.59977e-40 0)
(3.48307e-41 2.28371e-41 0)
(1.19745e-42 2.12773e-42 0)
(1.1882e-43 6.55739e-44 0)
(2.91309e-45 3.22852e-45 0)
(-1.20055e-44 -1.80954e-44 0)
(-3.92877e-43 -3.00625e-43 0)
(-3.5573e-42 -9.62399e-42 0)
(-1.05017e-40 -8.84345e-41 0)
(3.76803e-43 -2.59691e-39 0)
(1.08168e-40 -7.18951e-41 0)
(-1.24769e-42 -1.63729e-41 0)
(1.94673e-42 -3.06447e-42 0)
(1.36602e-42 -4.6853e-41 0)
(-9.56498e-43 -4.29344e-41 0)
(-1.01116e-42 9.03788e-41 0)
(1.0176e-42 9.03778e-41 0)
(1.04093e-42 -4.30565e-41 0)
(6.79653e-44 -4.74834e-41 0)
(1.32619e-42 -4.89085e-41 0)
(3.39054e-43 -8.89627e-41 0)
(-6.10474e-43 4.57444e-41 0)
(2.71499e-42 1.33278e-40 0)
(3.7276e-42 -4.28949e-41 0)
(3.81524e-43 -8.86441e-41 0)
(-9.33181e-43 4.30568e-41 0)
(1.32619e-42 4.57543e-41 0)
(1.3402e-42 1.57741e-42 0)
(4.89325e-44 1.56789e-43 0)
(4.86445e-45 4.81791e-45 0)
(1.56018e-46 2.81981e-46 0)
(9.06358e-48 7.98864e-48 0)
(2.64851e-49 3.4309e-49 0)
(1.1268e-50 9.00923e-51 0)
(3.12849e-52 3.02777e-52 0)
(3.13089e-52 -3.02996e-52 0)
(1.12781e-50 -9.01657e-51 0)
(2.65143e-49 -3.43392e-49 0)
(9.07455e-48 -7.99734e-48 0)
(1.56272e-46 -2.82315e-46 0)
(4.87325e-45 -4.82555e-45 0)
(4.90794e-44 -1.57063e-43 0)
(1.34491e-42 -1.58194e-42 0)
(1.37024e-42 -4.59062e-41 0)
(3.57774e-43 -4.44768e-41 0)
(3.57774e-43 4.44768e-41 0)
(1.37024e-42 4.59062e-41 0)
(1.34491e-42 1.58194e-42 0)
(4.90621e-44 1.57049e-43 0)
(4.47562e-45 4.29893e-45 0)
(-1.36188e-44 -1.17095e-44 0)
(-2.27391e-43 -4.2853e-43 0)
(-7.27818e-42 -7.03399e-42 0)
(-6.67715e-41 -2.35099e-40 0)
(-1.96012e-39 -2.16567e-39 0)
(5.6478e-42 -6.74384e-38 0)
(2.01047e-39 -1.76801e-39 0)
(-2.51728e-41 -4.0922e-40 0)
(1.16749e-41 -2.94299e-41 0)
(1.17006e-42 -2.19479e-41 0)
(6.53532e-43 -2.37829e-42 0)
(-1.46353e-43 3.42658e-42 0)
(1.79499e-43 3.49558e-42 0)
(1.8255e-43 -1.66153e-42 0)
(8.33995e-45 -1.84312e-42 0)
(6.63676e-44 -1.90162e-42 0)
(-1.13207e-43 -3.43978e-42 0)
(-2.81366e-43 1.77173e-42 0)
(1.40778e-43 5.15283e-42 0)
(3.17005e-43 -1.65476e-42 0)
(-1.01526e-43 -3.4267e-42 0)
(-1.76687e-43 1.66141e-42 0)
(6.63675e-44 1.77216e-42 0)
(7.18142e-44 6.47408e-44 0)
(2.61389e-45 6.4313e-45 0)
(2.65346e-46 2.06238e-46 0)
(8.47447e-48 1.1976e-47 0)
(4.93415e-49 3.49913e-49 0)
(1.4323e-50 1.48839e-50 0)
(6.04885e-52 3.99565e-52 0)
(1.66377e-53 1.32934e-53 0)
(1.66502e-53 -1.33031e-53 0)
(6.05414e-52 -3.99892e-52 0)
(1.43385e-50 -1.48972e-50 0)
(4.94004e-49 -3.50299e-49 0)
(8.48819e-48 -1.19905e-47 0)
(2.65825e-46 -2.06573e-46 0)
(2.62187e-45 -6.44292e-45 0)
(7.2071e-44 -6.4935e-44 0)
(6.8715e-44 -1.77838e-42 0)
(-1.07504e-43 -1.7197e-42 0)
(-1.07504e-43 1.7197e-42 0)
(6.87147e-44 1.77838e-42 0)
(7.20606e-44 6.49282e-44 0)
(2.22311e-45 6.24922e-45 0)
(-8.81266e-45 -7.13781e-45 0)
(-3.24372e-43 -1.66792e-43 0)
(-5.32178e-42 -5.91448e-42 0)
(-1.77826e-40 -9.83053e-41 0)
(-1.63514e-39 -3.26938e-39 0)
(-5.0906e-38 -3.1628e-38 0)
(1.14226e-40 -9.75226e-37 0)
(5.2043e-38 -2.61681e-38 0)
(-6.16674e-40 -6.2854e-39 0)
(3.09715e-40 -6.69218e-40 0)
(2.23026e-41 -5.29204e-40 0)
(1.52275e-41 -1.81142e-41 0)
(5.38898e-43 -1.60399e-42 0)
(6.14405e-44 1.32962e-43 0)
(9.37815e-45 -9.24413e-44 0)
(4.58349e-46 -9.90203e-44 0)
(2.40427e-45 -1.02055e-43 0)
(-5.14213e-45 -1.84696e-43 0)
(-1.21712e-44 9.51058e-44 0)
(5.14962e-45 2.76671e-43 0)
(1.25265e-44 -8.88654e-44 0)
(-4.61754e-45 -1.83982e-43 0)
(-7.43289e-45 8.92282e-44 0)
(2.40135e-45 9.51289e-44 0)
(2.6487e-45 3.46157e-45 0)
(1.00272e-46 3.50969e-46 0)
(1.01064e-47 1.12068e-47 0)
(3.32176e-49 6.52224e-49 0)
(1.91332e-50 1.89305e-50 0)
(5.66691e-52 7.99304e-52 0)
(2.36542e-53 2.12667e-53 0)
(6.59065e-55 6.98709e-55 0)
(6.5956e-55 -6.99204e-55 0)
(2.36749e-53 -2.12838e-53 0)
(5.67308e-52 -8.00003e-52 0)
(1.91563e-50 -1.89511e-50 0)
(3.32719e-49 -6.53002e-49 0)
(1.0125e-47 -1.1225e-47 0)
(1.00585e-46 -3.51602e-46 0)
(2.65847e-45 -3.47213e-45 0)
(2.49147e-45 -9.54686e-44 0)
(-4.88513e-45 -9.23375e-44 0)
(-4.88525e-45 9.23374e-44 0)
(2.4863e-45 9.54653e-44 0)
(2.51166e-45 3.33536e-45 0)
(-5.46529e-45 -3.50056e-45 0)
(-1.26379e-43 -1.51075e-43 0)
(-4.48066e-42 -3.41441e-42 0)
(-7.44283e-41 -1.26811e-40 0)
(-2.47404e-39 -2.11005e-39 0)
(-2.3852e-38 -7.49136e-38 0)
(-7.35519e-37 -7.42571e-37 0)
(6.77507e-40 -2.50553e-35 0)
(7.46253e-37 -6.2263e-37 0)
(-8.55143e-39 -1.52274e-37 0)
(5.55786e-39 -1.0489e-38 0)
(5.3719e-40 -7.29829e-39 0)
(3.9955e-40 -2.48781e-40 0)
(1.35953e-41 -2.34153e-41 0)
(1.35426e-42 -7.12744e-43 0)
(4.17947e-44 -4.47605e-44 0)
(2.44743e-45 -4.83814e-45 0)
(1.75058e-46 -3.82682e-45 0)
(-2.39003e-46 -6.80838e-45 0)
(-5.66331e-46 3.50949e-45 0)
(2.2864e-46 1.01963e-44 0)
(5.69044e-46 -3.26985e-45 0)
(-2.1764e-46 -6.77983e-45 0)
(-3.43404e-46 3.28369e-45 0)
(1.06364e-46 3.51044e-45 0)
(1.17854e-46 1.32833e-46 0)
(4.45029e-48 1.33701e-47 0)
(4.49241e-49 4.39354e-49 0)
(1.47141e-50 2.52956e-50 0)
(8.41053e-52 7.49119e-52 0)
(2.47734e-53 3.12623e-53 0)
(1.02095e-54 8.42904e-55 0)
(2.82144e-56 2.73631e-56 0)
(2.82351e-56 -2.73824e-56 0)
(1.02182e-54 -8.43576e-55 0)
(2.47998e-53 -3.12897e-53 0)
(8.42047e-52 -7.49933e-52 0)
(1.47379e-50 -2.53261e-50 0)
(4.50057e-49 -4.40072e-49 0)
(4.46416e-48 -1.33947e-47 0)
(1.18288e-46 -1.33247e-46 0)
(1.10362e-46 -3.52337e-45 0)
(-2.30104e-46 -3.40312e-45 0)
(-2.32518e-46 3.40229e-45 0)
(6.63781e-48 3.49641e-45 0)
(-2.80314e-45 -9.73549e-46 0)
(-1.14563e-43 -3.10486e-44 0)
(-2.58882e-42 -1.20296e-42 0)
(-9.61217e-41 -2.74892e-41 0)
(-1.59801e-39 -1.01304e-39 0)
(-5.667e-38 -1.7657e-38 0)
(-5.57458e-37 -6.29592e-37 0)
(-1.88316e-35 -7.35598e-36 0)
(5.17977e-39 -2.44359e-34 0)
(1.90357e-35 -6.38292e-36 0)
(-1.46594e-37 -1.67958e-36 0)
(1.89817e-37 -2.28882e-37 0)
(1.04574e-38 -1.94351e-37 0)
(5.49782e-39 -6.10096e-39 0)
(1.86224e-40 -5.71842e-40 0)
(1.7605e-41 -1.65176e-41 0)
(5.41134e-43 -9.5608e-43 0)
(3.12702e-44 -2.61873e-44 0)
(8.95122e-46 -1.29284e-45 0)
(2.9892e-47 -3.31039e-46 0)
(-1.86731e-47 1.54802e-46 0)
(7.90965e-48 4.5269e-46 0)
(1.96891e-47 -1.45197e-46 0)
(-7.57503e-48 -3.01025e-46 0)
(-1.19246e-47 1.4581e-46 0)
(3.65279e-48 1.55849e-46 0)
(4.06486e-48 5.88199e-48 0)
(1.57809e-49 5.92736e-49 0)
(1.57417e-50 1.94094e-50 0)
(5.25878e-52 1.1087e-51 0)
(2.96553e-53 3.26517e-53 0)
(8.84832e-55 1.34515e-54 0)
(3.59651e-56 3.59895e-56 0)
(1.00064e-57 1.15029e-57 0)
(1.00136e-57 -1.15108e-57 0)
(3.59956e-56 -3.60175e-56 0)
(8.85768e-55 -1.3463e-54 0)
(2.96903e-53 -3.26866e-53 0)
(5.26723e-52 -1.11001e-51 0)
(1.57703e-50 -1.94408e-50 0)
(1.58297e-49 -5.93816e-49 0)
(4.0797e-48 -5.90045e-48 0)
(3.78061e-48 -1.5643e-46 0)
(-8.63895e-48 -1.514e-46 0)
(-2.85592e-47 1.37415e-46 0)
(-8.39393e-46 -2.94568e-46 0)
(-2.36702e-44 -1.92429e-44 0)
(-9.16785e-43 -5.37836e-43 0)
(-2.09586e-41 -2.19228e-41 0)
(-7.71763e-40 -4.99868e-40 0)
(-1.34067e-38 -1.97659e-38 0)
(-4.74859e-37 -3.48337e-37 0)
(-5.32055e-36 -1.38423e-35 0)
(-1.77789e-34 -1.75828e-34 0)
(-1.83419e-37 -6.82521e-33 0)
(1.75441e-34 -1.57793e-34 0)
(-6.15662e-38 -1.24597e-38 0)
(-2.58524e-36 -1.56876e-37 0)
(-1.82512e-35 -6.62875e-36 0)
(-9.73005e-34 -6.33944e-36 0)
(-9.57285e-34 1.3138e-35 0)
(9.57285e-34 1.3138e-35 0)
(9.73005e-34 -6.33944e-36 0)
(1.82512e-35 -6.62875e-36 0)
(2.58529e-36 -1.56888e-37 0)
(5.85527e-38 -1.26579e-38 0)
(4.56213e-39 -2.99844e-40 0)
(1.07569e-40 -1.63689e-41 0)
(-4.44004e-48 -7.66537e-43 0)
(-1.07569e-40 -1.63689e-41 0)
(-4.56213e-39 -2.99844e-40 0)
(-5.85528e-38 -1.26579e-38 0)
(-2.5853e-36 -1.56888e-37 0)
(-1.82513e-35 -6.62877e-36 0)
(-9.7301e-34 -6.33974e-36 0)
(-9.57344e-34 1.31254e-35 0)
(9.54695e-34 1.29809e-35 0)
(9.54695e-34 -1.29809e-35 0)
(-9.57344e-34 -1.31254e-35 0)
(-9.7301e-34 6.33974e-36 0)
(-1.82513e-35 6.62877e-36 0)
(-2.5853e-36 1.56888e-37 0)
(-5.8553e-38 1.26579e-38 0)
(-4.56799e-39 2.9946e-40 0)
(-2.15543e-40 -1.57235e-44 0)
(-4.57369e-39 -2.99828e-40 0)
(-5.86548e-38 -1.26739e-38 0)
(-2.58975e-36 -1.57172e-37 0)
(-1.83053e-35 -6.64112e-36 0)
(-9.75536e-34 -6.48395e-36 0)
(-9.73005e-34 6.65381e-36 0)
(-9.50826e-44 1.32828e-35 0)
(9.73005e-34 6.65381e-36 0)
(9.75536e-34 -6.48396e-36 0)
(1.83009e-35 -6.64114e-36 0)
(2.56556e-36 -1.50219e-37 0)
(-2.84033e-39 6.04832e-39 0)
(-1.03614e-37 7.87368e-38 0)
(-8.37789e-37 3.33112e-36 0)
(-3.20039e-35 3.1858e-36 0)
(-3.12671e-35 -6.60212e-36 0)
(3.12671e-35 -6.60212e-36 0)
(3.20039e-35 3.1858e-36 0)
(8.37789e-37 3.33112e-36 0)
(1.03617e-37 7.87436e-38 0)
(2.74289e-39 6.29873e-39 0)
(2.00706e-40 1.48779e-40 0)
(5.22611e-42 8.0845e-42 0)
(-2.27622e-49 3.77606e-43 0)
(-5.22612e-42 8.08451e-42 0)
(-2.00707e-40 1.48779e-40 0)
(-2.7429e-39 6.29874e-39 0)
(-1.03618e-37 7.87438e-38 0)
(-8.37794e-37 3.33113e-36 0)
(-3.20041e-35 3.18595e-36 0)
(-3.12699e-35 -6.59581e-36 0)
(3.11633e-35 -6.52323e-36 0)
(3.11633e-35 6.52323e-36 0)
(-3.12699e-35 6.59581e-36 0)
(-3.20041e-35 -3.18595e-36 0)
(-8.37794e-37 -3.33113e-36 0)
(-1.03618e-37 -7.87438e-38 0)
(-2.74291e-39 -6.29873e-39 0)
(-2.00981e-40 -1.4859e-40 0)
(-1.04726e-41 7.72591e-45 0)
(-2.01248e-40 1.48771e-40 0)
(-2.74786e-39 6.30662e-39 0)
(-1.03813e-37 7.88845e-38 0)
(-8.40336e-37 3.33727e-36 0)
(-3.21049e-35 3.25839e-36 0)
(-3.20039e-35 -3.34359e-36 0)
(-5.54642e-45 -6.67485e-36 0)
(3.20039e-35 -3.34359e-36 0)
(3.21049e-35 3.2584e-36 0)
(8.40114e-37 3.33721e-36 0)
(1.02226e-37 6.69263e-38 0)
(-3.21687e-40 2.64776e-40 0)
(-1.05263e-38 3.66128e-39 0)
(-3.00224e-38 1.29604e-37 0)
(-7.18744e-37 1.22814e-37 0)
(-6.9898e-37 -2.56365e-37 0)
(6.9898e-37 -2.56365e-37 0)
(7.18744e-37 1.22814e-37 0)
(3.00223e-38 1.29604e-37 0)
(1.05261e-38 3.66158e-39 0)
(2.93361e-40 2.77274e-40 0)
(2.64676e-41 7.24887e-42 0)
(6.92974e-43 3.79835e-43 0)
(-3.26117e-50 1.90808e-44 0)
(-6.92975e-43 3.79835e-43 0)
(-2.64677e-41 7.24887e-42 0)
(-2.93362e-40 2.77274e-40 0)
(-1.05262e-38 3.66158e-39 0)
(-3.0023e-38 1.29604e-37 0)
(-7.1877e-37 1.22822e-37 0)
(-6.99274e-37 -2.56087e-37 0)
(6.88428e-37 -2.52696e-37 0)
(6.88428e-37 2.52696e-37 0)
(-6.99274e-37 2.56087e-37 0)
(-7.1877e-37 -1.22822e-37 0)
(-3.0023e-38 -1.29604e-37 0)
(-1.05262e-38 -3.66158e-39 0)
(-2.93363e-40 -2.77274e-40 0)
(-2.65069e-41 -7.23932e-42 0)
(-1.38883e-42 3.80875e-46 0)
(-2.65449e-41 7.24847e-42 0)
(-2.94018e-40 2.77644e-40 0)
(-1.05519e-38 3.66845e-39 0)
(-3.02899e-38 1.29874e-37 0)
(-7.29002e-37 1.26206e-37 0)
(-7.18744e-37 -1.30152e-37 0)
(-8.65539e-47 -2.59763e-37 0)
(7.18744e-37 -1.30152e-37 0)
(7.29003e-37 1.26206e-37 0)
(3.02945e-38 1.29871e-37 0)
(1.06347e-38 3.11897e-39 0)
(-1.38982e-41 3.5228e-41 0)
(-4.09534e-40 4.04141e-40 0)
(-7.85242e-40 1.42443e-38 0)
(-1.24549e-38 1.35068e-38 0)
(-1.20677e-38 -2.81932e-38 0)
(1.20677e-38 -2.81932e-38 0)
(1.24549e-38 1.35068e-38 0)
(7.85241e-40 1.42443e-38 0)
(4.09522e-40 4.04201e-40 0)
(1.26201e-41 3.6832e-41 0)
(1.14899e-42 9.66226e-43 0)
(3.21418e-44 5.44862e-44 0)
(-1.59644e-51 2.71108e-45 0)
(-3.21418e-44 5.44863e-44 0)
(-1.14899e-42 9.66227e-43 0)
(-1.26201e-41 3.6832e-41 0)
(-4.09524e-40 4.04202e-40 0)
(-7.85273e-40 1.42443e-38 0)
(-1.2456e-38 1.35078e-38 0)
(-1.20803e-38 -2.81563e-38 0)
(1.1657e-38 -2.7788e-38 0)
(1.1657e-38 2.7788e-38 0)
(-1.20803e-38 2.81563e-38 0)
(-1.2456e-38 -1.35078e-38 0)
(-7.85273e-40 -1.42443e-38 0)
(-4.09524e-40 -4.04202e-40 0)
(-1.26202e-41 -3.6832e-41 0)
(-1.15079e-42 -9.64869e-43 0)
(-6.44226e-44 5.55631e-47 0)
(-1.15254e-42 9.66169e-43 0)
(-1.26506e-41 3.68851e-41 0)
(-4.1064e-40 4.05114e-40 0)
(-7.96742e-40 1.42802e-38 0)
(-1.28529e-38 1.38751e-38 0)
(-1.24549e-38 -1.43172e-38 0)
(8.15521e-49 -2.85624e-38 0)
(1.24549e-38 -1.43172e-38 0)
(1.28529e-38 1.38751e-38 0)
(7.97161e-40 1.42795e-38 0)
(4.1594e-40 3.35798e-40 0)
(-9.80688e-43 1.52601e-42 0)
(-2.80965e-41 1.74924e-41 0)
(-3.24304e-41 5.61999e-40 0)
(-1.23594e-40 5.30082e-40 0)
(-1.18472e-40 -1.11122e-39 0)
(1.18472e-40 -1.11122e-39 0)
(1.23594e-40 5.30082e-40 0)
(3.24303e-41 5.61999e-40 0)
(2.80948e-41 1.74952e-41 0)
(8.69103e-43 1.60035e-42 0)
(8.481e-44 4.48449e-44 0)
(2.36319e-45 2.50549e-45 0)
(-1.17084e-52 1.30809e-46 0)
(-2.3632e-45 2.5055e-45 0)
(-8.48102e-44 4.4845e-44 0)
(-8.69106e-43 1.60035e-42 0)
(-2.8095e-41 1.74953e-41 0)
(-3.24326e-41 5.62002e-40 0)
(-1.23679e-40 5.30127e-40 0)
(-1.19343e-40 -1.10962e-39 0)
(9.02919e-41 -1.09368e-39 0)
(9.02919e-41 1.09368e-39 0)
(-1.19343e-40 1.10962e-39 0)
(-1.23679e-40 -5.30127e-40 0)
(-3.24326e-41 -5.62002e-40 0)
(-2.8095e-41 -1.74953e-41 0)
(-8.6911e-43 -1.60035e-42 0)
(-8.49456e-44 -4.47795e-44 0)
(-4.73676e-45 2.64883e-48 0)
(-8.50771e-44 4.48422e-44 0)
(-8.71341e-43 1.60279e-42 0)
(-2.81774e-41 1.75376e-41 0)
(-3.32168e-41 5.63557e-40 0)
(-1.50902e-40 5.4602e-40 0)
(-1.23594e-40 -5.65163e-40 0)
(1.18771e-48 -1.1272e-39 0)
(1.23594e-40 -5.65163e-40 0)
(1.50904e-40 5.4602e-40 0)
(3.32825e-41 5.63519e-40 0)
(2.87945e-41 1.45075e-41 0)
(-4.03247e-44 1.1288e-43 0)
(-1.08531e-42 1.21146e-42 0)
(-1.08099e-42 3.90854e-41 0)
(5.25947e-43 3.68892e-41 0)
(5.53949e-43 -7.73081e-41 0)
(-5.53949e-43 -7.73081e-41 0)
(-5.25948e-43 3.68892e-41 0)
(1.08098e-42 3.90854e-41 0)
(1.08524e-42 1.2117e-42 0)
(3.56326e-44 1.18286e-43 0)
(3.47581e-45 3.30061e-45 0)
(1.01132e-46 1.8862e-46 0)
(-5.13063e-54 9.76432e-48 0)
(-1.01132e-46 1.8862e-46 0)
(-3.47582e-45 3.30062e-45 0)
(-3.56327e-44 1.18287e-43 0)
(-1.08524e-42 1.2117e-42 0)
(-1.08109e-42 3.90856e-41 0)
(5.22466e-43 3.68926e-41 0)
(5.18215e-43 -7.71897e-41 0)
(-1.64267e-42 -7.60931e-41 0)
(-1.64267e-42 7.60931e-41 0)
(5.18215e-43 7.71897e-41 0)
(5.22466e-43 -3.68926e-41 0)
(-1.08109e-42 -3.90856e-41 0)
(-1.08524e-42 -1.2117e-42 0)
(-3.56329e-44 -1.18286e-43 0)
(-3.48156e-45 -3.29573e-45 0)
(-2.02718e-46 1.98324e-49 0)
(-3.48713e-45 3.30041e-45 0)
(-3.57284e-44 1.1847e-43 0)
(-1.08862e-42 1.21482e-42 0)
(-1.11324e-42 3.92006e-41 0)
(-5.27036e-43 3.79858e-41 0)
(5.25948e-43 -3.93193e-41 0)
(6.79912e-50 -7.84078e-41 0)
(-5.25945e-43 -3.93193e-41 0)
(5.2712e-43 3.79857e-41 0)
(1.11632e-42 3.91972e-41 0)
(1.1166e-42 9.93435e-43 0)
(-2.14769e-45 4.8398e-45 0)
(-5.81775e-44 4.9721e-44 0)
(-5.41102e-44 1.51425e-42 0)
(1.4234e-43 1.42406e-42 0)
(1.40009e-43 -2.99306e-42 0)
(-1.40009e-43 -2.99306e-42 0)
(-1.4234e-43 1.42406e-42 0)
(5.41102e-44 1.51426e-42 0)
(5.81608e-44 4.97461e-44 0)
(1.90352e-45 4.84937e-45 0)
(1.89684e-46 1.41291e-46 0)
(5.49408e-48 8.00115e-48 0)
(-2.69348e-55 4.27537e-49 0)
(-5.49409e-48 8.00116e-48 0)
(-1.89684e-46 1.41291e-46 0)
(-1.90353e-45 4.84938e-45 0)
(-5.81612e-44 4.97463e-44 0)
(-5.41157e-44 1.51426e-42 0)
(1.4215e-43 1.4242e-42 0)
(1.381e-43 -2.9882e-42 0)
(-1.98359e-43 -2.94317e-42 0)
(-1.98359e-43 2.94317e-42 0)
(1.381e-43 2.9882e-42 0)
(1.4215e-43 -1.4242e-42 0)
(-5.41157e-44 -1.51426e-42 0)
(-5.81612e-44 -4.97463e-44 0)
(-1.90353e-45 -4.84937e-45 0)
(-1.89997e-46 -1.41077e-46 0)
(-1.10127e-47 8.58379e-51 0)
(-1.903e-46 1.41282e-46 0)
(-1.90872e-45 4.85715e-45 0)
(-5.83453e-44 4.98796e-44 0)
(-5.58292e-44 1.51897e-42 0)
(8.58984e-44 1.46909e-42 0)
(1.4234e-43 -1.52384e-42 0)
(5.16883e-51 -3.03822e-42 0)
(-1.4234e-43 -1.52384e-42 0)
(-8.58929e-44 1.46909e-42 0)
(5.60316e-44 1.51882e-42 0)
(6.00961e-44 4.08077e-44 0)
(9.614e-46 1.40986e-44 0)
(-2.26668e-45 2.09998e-45 0)
(-1.94791e-45 8.12618e-44 0)
(6.0816e-45 7.64727e-44 0)
(5.96059e-45 -1.60692e-43 0)
(-5.96057e-45 -1.60692e-43 0)
(-6.08113e-45 7.64737e-44 0)
(1.95903e-45 8.12855e-44 0)
(2.14561e-45 2.6598e-45 0)
(7.30388e-47 2.64757e-46 0)
(7.22102e-48 7.67878e-48 0)
(2.15342e-49 4.35835e-49 0)
(-1.05293e-56 2.31305e-50 0)
(-2.15342e-49 4.35836e-49 0)
(-7.22103e-48 7.67879e-48 0)
(-7.30392e-47 2.64757e-46 0)
(-2.14563e-45 2.65981e-45 0)
(-1.95924e-45 8.1286e-44 0)
(6.0739e-45 7.64814e-44 0)
(5.88731e-45 -1.60427e-43 0)
(-8.11341e-45 -1.58024e-43 0)
(-8.11341e-45 1.58024e-43 0)
(5.88731e-45 1.60427e-43 0)
(6.0739e-45 -7.64814e-44 0)
(-1.95924e-45 -8.1286e-44 0)
(-2.14563e-45 -2.65981e-45 0)
(-7.30395e-47 -2.64757e-46 0)
(-7.23315e-48 -7.6672e-48 0)
(-4.31655e-49 4.61018e-52 0)
(-7.24489e-48 7.67831e-48 0)
(-7.32431e-47 2.6518e-46 0)
(-2.15263e-45 2.66705e-45 0)
(-2.02505e-45 8.1543e-44 0)
(4.00154e-45 7.8876e-44 0)
(6.08113e-45 -8.18087e-44 0)
(2.32162e-52 -1.63101e-43 0)
(-6.08112e-45 -8.18087e-44 0)
(-4.00131e-45 7.88757e-44 0)
(2.03326e-45 8.1534e-44 0)
(2.2237e-45 2.17396e-45 0)
(9.61732e-44 6.81291e-44 0)
(-6.15238e-45 -1.04159e-44 0)
(3.65404e-46 2.49526e-45 0)
(2.99446e-46 2.80049e-45 0)
(2.76914e-46 -5.92833e-45 0)
(-2.76209e-46 -5.9279e-45 0)
(-2.81998e-46 2.81526e-45 0)
(8.67716e-47 3.00013e-45 0)
(9.54699e-47 1.02088e-46 0)
(3.2416e-48 1.00807e-47 0)
(3.20995e-49 3.01028e-49 0)
(9.53889e-51 1.68852e-50 0)
(-4.43488e-58 9.14996e-52 0)
(-9.5389e-51 1.68852e-50 0)
(-3.20995e-49 3.01028e-49 0)
(-3.24161e-48 1.00807e-47 0)
(-9.54704e-47 1.02089e-46 0)
(-8.67812e-47 3.00015e-45 0)
(2.81677e-46 2.81557e-45 0)
(2.72979e-46 -5.91779e-45 0)
(-3.72021e-46 -5.8255e-45 0)
(-3.72021e-46 5.8255e-45 0)
(2.72979e-46 5.91779e-45 0)
(2.81677e-46 -2.81557e-45 0)
(-8.67812e-47 -3.00015e-45 0)
(-9.54704e-47 -1.02089e-46 0)
(-3.24163e-48 -1.00807e-47 0)
(-3.21528e-49 -3.0057e-49 0)
(-1.91202e-50 1.79978e-53 0)
(-3.22044e-49 3.01009e-49 0)
(-3.25065e-48 1.00971e-47 0)
(-9.57818e-47 1.02373e-46 0)
(-8.97012e-47 3.00993e-45 0)
(1.89458e-46 2.90756e-45 0)
(2.81998e-46 -3.02004e-45 0)
(1.17855e-53 -6.02046e-45 0)
(-2.81998e-46 -3.02005e-45 0)
(-1.89447e-46 2.90754e-45 0)
(9.00975e-47 3.00956e-45 0)
(9.9202e-47 8.36387e-47 0)
(7.2369e-42 1.01997e-41 0)
(2.95187e-43 -4.20064e-43 0)
(1.11332e-44 -2.07167e-44 0)
(3.98218e-46 -3.56586e-46 0)
(2.0376e-47 -2.77313e-46 0)
(-9.27521e-48 -2.63478e-46 0)
(-9.79712e-48 1.25001e-46 0)
(2.98141e-48 1.33193e-46 0)
(3.29328e-48 4.52054e-48 0)
(1.14967e-49 4.46924e-49 0)
(1.12421e-50 1.32984e-50 0)
(3.40886e-52 7.39889e-52 0)
(-1.47888e-59 3.98749e-53 0)
(-3.40887e-52 7.3989e-52 0)
(-1.12421e-50 1.32984e-50 0)
(-1.14968e-49 4.46925e-49 0)
(-3.29329e-48 4.52056e-48 0)
(-2.98155e-48 1.33194e-46 0)
(9.79353e-48 1.25021e-46 0)
(9.48147e-48 -2.62735e-46 0)
(-1.29013e-47 -2.58649e-46 0)
(-1.29013e-47 2.58649e-46 0)
(9.48147e-48 2.62735e-46 0)
(9.79353e-48 -1.25021e-46 0)
(-2.98155e-48 -1.33194e-46 0)
(-3.29329e-48 -4.52056e-48 0)
(-1.14968e-49 -4.46924e-49 0)
(-1.12609e-50 -1.32784e-50 0)
(-6.83289e-52 7.74115e-55 0)
(-1.12791e-50 1.32976e-50 0)
(-1.15291e-49 4.47643e-49 0)
(-3.30419e-48 4.53312e-48 0)
(-3.08526e-48 1.33627e-46 0)
(6.61557e-48 1.29094e-46 0)
(9.80479e-48 -1.34076e-46 0)
(4.55093e-55 -2.67281e-46 0)
(-9.80477e-48 -1.34076e-46 0)
(-6.61515e-48 1.29094e-46 0)
(3.09966e-48 1.3361e-46 0)
(3.43028e-48 3.70474e-48 0)
(2.85752e-36 -5.04806e-35 0)
(6.83913e-36 -2.93614e-36 0)
(3.71975e-37 -1.96838e-36 0)
(1.77329e-37 -6.13564e-38 0)
(5.49174e-39 -4.90506e-39 0)
(5.18918e-40 -1.40976e-40 0)
(1.49735e-41 -7.67608e-42 0)
(8.71547e-43 -2.10456e-43 0)
(2.37173e-44 -8.91561e-45 0)
(1.02825e-45 -2.38999e-46 0)
(2.57514e-47 -4.09703e-48 0)
(1.1489e-48 1.1337e-47 0)
(5.91483e-49 -3.70117e-48 0)
(-2.18894e-49 -7.66906e-48 0)
(-3.45154e-49 3.71133e-48 0)
(1.05529e-49 3.97417e-48 0)
(1.17407e-49 1.53939e-49 0)
(4.53126e-51 1.54823e-50 0)
(4.47679e-52 5.16901e-52 0)
(1.48539e-53 2.93343e-53 0)
(8.25177e-55 8.75405e-55 0)
(2.44084e-56 3.57446e-56 0)
(9.74369e-58 9.63852e-58 0)
(2.68028e-59 3.04888e-59 0)
(2.68129e-59 -3.05096e-59 0)
(9.74653e-58 -9.64596e-58 0)
(2.44061e-56 -3.57751e-56 0)
(8.24627e-55 -8.76336e-55 0)
(1.48058e-53 -2.9369e-53 0)
(4.44824e-52 -5.17738e-52 0)
(4.38868e-51 -1.55106e-50 0)
(1.10339e-49 -1.54421e-49 0)
(-1.74907e-49 -3.98892e-48 0)
(-1.30626e-47 -3.84113e-48 0)
(-4.23561e-46 4.13656e-48 0)
(-1.80735e-44 1.48583e-47 0)
(-5.0566e-43 2.91782e-46 0)
(-2.06139e-41 9.8116e-45 0)
(-4.70654e-40 1.02824e-43 0)
(-1.85836e-38 -5.94672e-42 0)
(-3.25095e-37 -1.56833e-39 0)
(-1.2744e-35 -1.66878e-37 0)
(-1.47648e-34 -1.47121e-35 0)
(-5.84408e-33 -9.33717e-34 0)
(5.17834e-36 -3.53616e-32 0)
(5.84887e-33 -9.36844e-34 0)
(4.11806e-34 -4.31143e-34 0)
(5.84297e-34 -9.69788e-35 0)
(1.7135e-35 -8.98044e-35 0)
(2.37718e-36 -2.40535e-36 0)
(6.98729e-38 -1.96187e-37 0)
(5.39682e-39 -5.16858e-39 0)
(1.54668e-40 -2.86662e-40 0)
(8.4041e-42 -7.40315e-42 0)
(2.30476e-43 -3.18226e-43 0)
(9.75495e-45 -7.90262e-45 0)
(2.53294e-46 -2.78913e-46 0)
(8.84168e-48 -6.28351e-48 0)
(2.27233e-49 -2.95099e-49 0)
(2.07038e-51 -2.05917e-49 0)
(-6.71657e-51 9.74044e-50 0)
(2.09746e-51 1.04408e-49 0)
(2.33514e-51 4.02429e-51 0)
(9.19217e-53 3.98133e-52 0)
(8.99285e-54 1.32051e-53 0)
(3.02527e-55 7.34554e-55 0)
(1.66028e-56 2.17276e-56 0)
(4.95125e-58 8.68156e-58 0)
(1.95032e-59 2.31506e-59 0)
(5.37979e-61 7.1623e-61 0)
(5.39943e-61 -7.16119e-61 0)
(1.96121e-59 -2.31347e-59 0)
(5.00554e-58 -8.66976e-58 0)
(1.68845e-56 -2.16492e-56 0)
(3.15654e-55 -7.30049e-55 0)
(9.63747e-54 -1.29668e-53 0)
(1.19477e-52 -3.8607e-52 0)
(3.60707e-51 -3.47741e-51 0)
(5.10046e-50 -7.91429e-50 0)
(2.10967e-48 9.02847e-49 0)
(7.15881e-47 4.30051e-47 0)
(2.90909e-45 1.47767e-45 0)
(8.42246e-44 5.8958e-44 0)
(3.23283e-42 1.73456e-42 0)
(7.71111e-41 6.31169e-41 0)
(2.82916e-39 1.22881e-39 0)
(5.22591e-38 5.61185e-39 0)
(1.87213e-36 -4.88531e-36 0)
(2.32226e-35 -5.37545e-34 0)
(8.18664e-34 -4.29538e-32 0)
(5.36207e-34 -2.30115e-30 0)
(-2.66664e-34 -4.31173e-32 0)
(3.3837e-32 -2.00315e-32 0)
(3.50025e-32 -3.80127e-34 0)
(7.50545e-34 -4.90395e-36 0)
(1.08253e-34 -4.87179e-38 0)
(2.7607e-36 -1.79176e-40 0)
(2.18937e-37 3.48115e-42 0)
(5.75495e-39 2.94306e-43 0)
(3.19046e-40 7.47778e-45 0)
(8.24031e-42 2.78133e-46 0)
(3.54279e-43 6.43786e-48 0)
(8.79886e-45 2.00524e-49 0)
(3.10699e-46 1.04643e-50 0)
(7.33534e-48 -1.83617e-51 0)
(2.20399e-49 -4.0525e-51 0)
(4.7562e-51 1.96089e-51 0)
(1.77039e-52 2.10275e-51 0)
(5.64558e-53 8.27132e-53 0)
(2.16834e-54 8.0866e-54 0)
(2.03397e-55 2.71981e-55 0)
(6.78283e-57 1.49265e-56 0)
(3.63548e-58 4.45106e-58 0)
(1.07429e-59 1.7534e-59 0)
(4.13711e-61 4.68971e-61 0)
(1.17581e-62 1.42975e-62 0)
(3.92408e-62 -1.43396e-62 0)
(1.99976e-60 -4.7119e-61 0)
(9.52995e-59 -1.7658e-59 0)
(4.80725e-57 -4.51352e-58 0)
(2.23032e-55 -1.52596e-56 0)
(1.07367e-53 -2.87512e-55 0)
(4.66732e-52 -8.87179e-54 0)
(2.10398e-50 -1.16001e-52 0)
(8.30396e-49 -3.69102e-51 0)
(3.48113e-47 -6.20151e-50 0)
(1.21766e-45 -2.69915e-48 0)
(4.74755e-44 -8.91359e-47 0)
(1.43687e-42 -3.79177e-45 0)
(5.23089e-41 -1.04626e-43 0)
(1.32563e-39 -4.02614e-42 0)
(4.54272e-38 -5.30622e-41 0)
(9.13025e-37 2.21982e-39 0)
(2.99106e-35 6.34986e-37 0)
(4.22588e-34 6.46138e-35 0)
(1.31655e-32 5.02442e-33 0)
(3.50642e-32 2.66498e-31 0)
(2.26352e-32 5.02256e-33 0)
(6.11046e-34 -1.99463e-32 0)
(4.84395e-34 -2.92223e-34 0)
(1.49278e-35 8.46787e-35 0)
(2.1597e-36 2.35291e-36 0)
(6.4681e-38 1.95857e-37 0)
(5.07964e-39 5.16863e-39 0)
(1.46931e-40 2.86804e-40 0)
(8.05173e-42 7.40699e-42 0)
(2.22022e-43 3.18371e-43 0)
(9.44533e-45 7.90579e-45 0)
(2.46149e-46 2.79121e-46 0)
(8.61682e-48 6.58898e-48 0)
(2.11072e-49 1.98007e-49 0)
(6.30123e-51 4.32004e-51 0)
(1.41626e-52 1.60958e-52 0)
(4.6778e-54 5.09498e-53 0)
(1.09171e-54 1.95591e-54 0)
(4.2111e-56 1.83261e-55 0)
(3.8366e-57 6.11009e-57 0)