/*--------------------------------*- C++ -*----------------------------------*\
| =========                 |                                                 |
| \\      /  F ield         | OpenFOAM: The Open Source CFD Toolbox           |
|  \\    /   O peration     | Version:  2.4.0                                 |
|   \\  /    A nd           | Web:      www.OpenFOAM.org                      |
|    \\/     M anipulation  |                                                 |
\*---------------------------------------------------------------------------*/
FoamFile
{
    version     2.0;
    format      ascii;
    class       surfaceScalarField;
    location    "0.3";
    object      phi;
}
// * * * * * * * * * * * * * * * * * * * * * * * * * * * * * * * * * * * * * //

dimensions      [0 3 -1 0 0 0 0];

internalField   nonuniform List<scalar> 
15214
(
8.93697e-40
9.62772e-42
5.85e-39
8.14972e-41
7.93001e-39
1.13367e-39
3.53951e-37
9.87911e-40
6.33075e-42
-2.21317e-39
-3.53885e-37
-2.21255e-39
-6.97762e-39
9.97993e-40
8.99103e-40
1.2247e-39
1.2953e-38
1.29735e-39
3.62779e-37
2.14119e-39
3.60753e-37
-1.13306e-39
-3.39212e-37
-3.20108e-39
6.80848e-39
9.8791e-40
3.54909e-37
2.12158e-39
7.99555e-39
-9.98044e-40
5.85656e-39
-1.13434e-39
8.93155e-40
-8.1557e-41
5.92373e-41
-9.47282e-42
5.95066e-42
-6.13255e-43
3.80203e-43
-5.08175e-44
2.99313e-44
-3.05653e-45
1.78431e-45
-2.08847e-46
1.18843e-46
-1.16303e-47
1.31005e-47
-6.54529e-49
1.19203e-46
6.56412e-49
1.79046e-45
1.1664e-47
3.00432e-44
2.09501e-46
3.81868e-43
3.06747e-45
5.97879e-42
5.10147e-44
5.95874e-41
6.16101e-43
8.98722e-40
9.52056e-42
5.90979e-39
8.2119e-41
8.8287e-39
1.14319e-39
3.5986e-37
1.07003e-39
8.8287e-39
-1.07003e-39
5.90979e-39
-1.14319e-39
8.98722e-40
-8.2119e-41
5.95874e-41
-9.52056e-42
5.97879e-42
-6.16101e-43
3.81868e-43
-5.10148e-44
3.00424e-44
-3.06989e-45
1.78498e-45
-2.34461e-46
6.9791e-47
-3.15865e-46
-3.69041e-47
-1.89133e-45
5.06239e-47
-1.83714e-44
-1.40881e-45
1.10781e-40
-9.58516e-42
7.61269e-40
-9.65092e-41
9.00797e-39
-1.31939e-39
1.61385e-38
-1.14581e-39
8.78563e-43
2.57314e-39
-1.61293e-38
2.57246e-39
-8.8888e-39
-1.15721e-39
1.11706e-40
-1.4267e-39
9.66762e-39
-1.51322e-39
2.52581e-38
-2.48736e-39
1.70189e-38
1.31871e-39
-6.24923e-39
3.71895e-39
8.81296e-40
-1.14581e-39
1.62584e-38
-2.4652e-39
9.01714e-39
1.15726e-39
7.62189e-40
1.32013e-39
1.10884e-40
9.66046e-41
8.29266e-42
1.07103e-41
8.22638e-43
6.84606e-43
5.59077e-44
5.50175e-44
4.39908e-45
3.26481e-45
2.72407e-46
2.18935e-46
1.82189e-47
1.2064e-47
2.06175e-48
6.71012e-49
1.82759e-47
-6.7291e-49
2.73376e-46
-1.20982e-47
4.41621e-45
-2.19606e-46
5.61618e-44
-3.27616e-45
8.26763e-43
-5.52243e-44
8.34413e-42
-6.87651e-43
1.1165e-40
-1.07621e-41
7.6965e-40
-9.72338e-41
9.11962e-39
-1.33015e-39
1.69081e-38
-1.24304e-39
9.11962e-39
1.24304e-39
7.6965e-40
1.33015e-39
1.1165e-40
9.72338e-41
8.34413e-42
1.07621e-41
8.26763e-43
6.87651e-43
5.61607e-44
5.52223e-44
4.40328e-45
3.24647e-45
1.88064e-46
-8.85101e-47
-7.54743e-46
-3.78152e-45
-6.85609e-46
-2.38377e-44
7.8151e-46
-2.34505e-43
-1.78676e-44
1.62485e-41
-1.37194e-42
7.02803e-41
-1.36769e-41
5.74321e-40
-1.58519e-40
9.96528e-40
-1.33948e-40
1.67973e-43
3.07798e-40
-9.94986e-40
3.07693e-40
-5.56755e-40
-1.35598e-40
1.63478e-41
-1.73754e-40
6.29963e-40
-1.85998e-40
1.58718e-39
-2.95669e-40
1.08436e-39
1.58413e-40
-3.34207e-40
4.41747e-40
8.80004e-41
-1.33948e-40
1.01424e-39
-2.92467e-40
5.75861e-40
1.35606e-40
7.04495e-41
1.58634e-40
1.61911e-41
1.36913e-41
1.37396e-42
1.54418e-42
1.56712e-43
1.06043e-43
1.12621e-44
8.6052e-45
9.39432e-46
5.3233e-46
5.98243e-47
3.59977e-47
4.11463e-48
2.039e-48
4.72346e-49
1.14158e-49
4.12786e-48
-1.1449e-49
6.00461e-47
-2.04495e-48
9.43296e-46
-3.61119e-47
1.13178e-44
-5.34248e-46
1.57591e-43
-8.63914e-45
1.38427e-42
-1.06539e-43
1.63365e-41
-1.55225e-42
7.16648e-41
-1.37887e-41
5.90656e-40
-1.60071e-40
1.06818e-39
-1.47736e-40
5.90656e-40
1.47736e-40
7.16648e-41
1.60071e-40
1.63365e-41
1.37887e-41
1.38427e-42
1.55225e-42
1.5759e-43
1.06537e-43
1.13032e-44
8.61491e-45
7.68628e-46
1.79906e-46
-1.10058e-45
-3.6679e-45
-1.06817e-44
-4.63829e-44
-9.52252e-45
-2.95547e-43
1.07342e-44
-2.97391e-42
-2.23184e-43
1.50025e-42
-2.6405e-43
4.81904e-42
-2.22823e-42
2.78982e-41
-2.46536e-41
4.66958e-41
-2.06998e-41
1.82249e-44
4.78754e-41
-4.65371e-41
4.78556e-41
-2.62659e-41
-2.09976e-41
1.50883e-42
-2.71578e-41
3.13847e-41
-2.91262e-41
7.61012e-41
-4.59289e-41
5.31452e-41
2.46315e-41
-1.23299e-41
6.85751e-41
6.46763e-42
-2.06996e-41
4.83434e-41
-4.5351e-41
2.80565e-41
2.09993e-41
4.83706e-42
2.46733e-41
1.49189e-42
2.22827e-42
1.40297e-43
2.78162e-43
1.69444e-44
1.99645e-44
1.27996e-45
1.7058e-45
1.09325e-46
1.08314e-46
7.16908e-48
7.51322e-48
4.99728e-49
4.31661e-49
5.84646e-50
2.4462e-50
5.01378e-49
-2.45341e-50
7.19651e-48
-4.32945e-49
1.09794e-46
-7.53768e-48
1.28662e-45
-1.0872e-46
1.70465e-44
-1.71288e-45
1.41467e-43
-2.00652e-44
1.50754e-42
-2.79759e-43
4.96019e-42
-2.24652e-42
2.94055e-41
-2.49312e-41
5.16546e-41
-2.2946e-41
2.94055e-41
2.2946e-41
4.96019e-42
2.49312e-41
1.50754e-42
2.24652e-42
1.41466e-43
2.79758e-43
1.70297e-44
2.00466e-44
1.10811e-45
1.45896e-45
-2.05642e-45
-3.63925e-45
-1.4529e-44
-3.95819e-44
-1.3553e-43
-5.02959e-43
-1.21155e-43
-3.27559e-42
1.34996e-43
-3.34677e-41
-2.50089e-42
1.55739e-43
-2.30599e-43
3.54667e-43
-2.71919e-43
9.79577e-43
-2.44077e-42
1.45104e-42
-2.0051e-42
2.16704e-45
4.68279e-42
-1.43323e-42
4.68086e-42
-8.08611e-43
-2.03521e-42
1.57202e-43
-2.67864e-42
1.19581e-42
-2.88385e-42
2.58731e-42
-4.48046e-42
1.97531e-42
2.41231e-42
5.49387e-44
6.68563e-42
5.26518e-43
-2.00246e-42
1.6235e-42
-4.41705e-42
9.97031e-43
2.03541e-42
3.55976e-43
2.4171e-42
1.55202e-43
2.33587e-43
1.55385e-44
3.04704e-44
2.00097e-45
2.2905e-45
1.5566e-46
2.00311e-46
1.36617e-47
1.30915e-47
9.10512e-49
9.20177e-49
6.43186e-50
5.38611e-50
7.5922e-51
3.07571e-51
6.45341e-50
-3.08494e-51
9.14073e-49
-5.40247e-50
1.3722e-47
-9.23253e-49
1.56506e-46
-1.31421e-47
2.01371e-45
-2.01177e-46
1.56804e-44
-2.30267e-45
1.57045e-43
-3.06575e-44
3.69486e-43
-2.35676e-43
1.13638e-42
-2.44526e-42
1.82026e-42
-2.23812e-42
1.13638e-42
2.23812e-42
3.69486e-43
2.44526e-42
1.57044e-43
2.35675e-43
1.56666e-44
3.06463e-44
1.81366e-45
2.11339e-45
-1.98602e-45
-2.39838e-45
-2.64272e-44
-3.90347e-44
-1.79847e-43
-4.18498e-43
-1.71662e-42
-5.4626e-42
-1.54137e-42
-3.66012e-41
1.69573e-42
-3.87117e-40
-2.83356e-41
2.30436e-45
-2.35422e-42
3.49283e-44
-4.55442e-43
2.20055e-44
-5.48507e-43
1.24021e-44
-2.42722e-43
3.30531e-46
4.98576e-43
-9.57183e-45
5.01999e-43
-4.63828e-45
-2.17813e-43
1.344e-44
-2.88365e-43
3.2451e-44
-3.10817e-43
4.3906e-44
-4.80431e-43
5.06231e-44
2.58818e-43
4.77356e-44
7.16566e-43
3.9633e-44
-2.13979e-43
2.60126e-44
-4.73068e-43
2.08916e-44
2.17808e-43
2.49993e-44
2.59389e-43
1.32536e-44
2.57402e-44
1.39928e-45
3.53412e-45
1.86337e-46
2.72636e-46
1.49307e-47
2.44684e-47
1.3315e-48
1.62508e-48
9.03949e-50
1.15711e-49
6.4441e-51
6.83575e-51
7.6976e-52
3.92692e-52
6.46606e-51
-3.9388e-52
9.07557e-50
-6.85675e-51
1.33754e-48
-1.16104e-49
1.50147e-47
-1.6315e-48
1.87578e-46
-2.45772e-47
1.41286e-45
-2.74145e-46
1.34248e-44
-3.55695e-45
2.62095e-44
-2.59881e-44
3.2716e-44
-2.62648e-43
3.73845e-44
-2.39965e-43
3.2716e-44
2.39965e-43
2.62089e-44
2.62647e-43
1.34145e-44
2.59824e-44
1.27019e-45
3.4643e-45
-1.90729e-45
-1.29924e-45
-2.26544e-44
-2.17959e-44
-2.83708e-43
-3.32361e-43
-1.96957e-42
-3.63849e-42
-1.91151e-41
-4.86097e-41
-1.72382e-41
-3.41762e-40
1.86437e-41
-3.68475e-39
-2.70141e-40
-1.17027e-43
-2.32847e-41
1.22646e-43
-4.65929e-42
3.27318e-44
-3.33069e-42
1.14903e-44
-3.37565e-43
1.60765e-45
2.70984e-46
4.04407e-45
4.05059e-44
2.30007e-45
-1.92199e-44
1.20458e-45
-2.53235e-44
-2.65053e-47
-2.73337e-44
-3.44957e-45
-4.18885e-44
-3.91297e-46
2.26127e-44
6.02335e-45
6.24503e-44
3.30986e-45
-1.85617e-44
-2.35226e-45
-4.12004e-44
-8.21309e-46
1.89199e-44
1.99771e-45
2.26676e-44
1.18542e-45
2.33491e-45
1.28566e-46
3.29834e-46
1.76009e-47
2.61693e-47
1.43399e-48
2.38534e-48
1.29615e-49
1.6134e-49
8.88933e-51
1.15892e-50
6.37978e-52
6.9274e-52
7.66469e-53
3.99837e-53
6.40171e-52
-4.0106e-53
8.92526e-51
-6.94895e-52
1.30212e-49
-1.16292e-50
1.44224e-48
-1.6199e-49
1.77215e-47
-2.39623e-48
1.2987e-46
-2.6319e-47
1.20157e-45
-3.32056e-46
2.10842e-45
-2.35867e-45
2.32672e-46
-2.29709e-44
-1.5753e-45
-2.09202e-44
2.32292e-46
2.09201e-44
2.10218e-45
2.29685e-44
1.09659e-45
2.31239e-45
-1.33013e-45
-4.2973e-46
-2.17998e-44
-1.31472e-44
-2.39538e-43
-1.853e-43
-3.07992e-42
-2.90481e-42
-2.19431e-41
-3.2681e-41
-2.21038e-40
-4.58249e-40
-2.00597e-40
-3.42207e-39
2.13294e-40
-3.91561e-38
-2.77602e-39
-1.03872e-42
-2.42795e-40
1.55612e-42
-4.38726e-41
3.86434e-43
-3.03872e-41
1.66085e-43
-2.86581e-42
1.7087e-44
-3.71933e-43
2.68968e-45
-2.439e-44
4.35443e-46
-4.18823e-45
1.11308e-46
-2.4343e-45
-8.25594e-47
-2.46621e-45
-4.74313e-46
-3.74796e-45
-1.65445e-46
2.02412e-45
5.2207e-46
5.58508e-45
2.54588e-46
-1.65626e-45
-3.12953e-46
-3.68289e-45
-1.38985e-46
1.6898e-45
1.50541e-46
2.02938e-45
9.3756e-47
2.12865e-46
1.04459e-47
3.08456e-47
1.45375e-48
2.48697e-48
1.20567e-49
2.29712e-49
1.09961e-50
1.5699e-50
7.62897e-52
1.13513e-51
5.50291e-53
6.8262e-53
6.65933e-54
3.95047e-54
5.52201e-53
-3.9626e-54
7.66018e-52
-6.84756e-53
1.10476e-50
-1.13908e-51
1.21275e-49
-1.57631e-50
1.46398e-48
-2.30778e-49
1.05554e-47
-2.50152e-48
9.50877e-47
-3.10595e-47
1.59511e-46
-2.1512e-46
-5.5925e-47
-2.05771e-45
-2.59249e-46
-1.87139e-45
-5.89877e-47
1.87066e-45
1.0902e-46
2.04456e-45
-7.60654e-46
-3.4993e-47
-1.20076e-44
-4.11857e-45
-1.8199e-43
-7.25703e-44
-2.03885e-42
-1.03941e-42
-2.67897e-41
-1.66775e-41
-1.98898e-40
-1.968e-40
-2.05081e-39
-2.90209e-39
-1.87247e-39
-2.45954e-38
1.93609e-39
-2.88244e-37
-2.08051e-38
-1.66477e-42
-1.94534e-39
1.98899e-41
-4.22395e-40
4.67436e-42
-3.19213e-40
1.9185e-42
-2.84917e-41
1.897e-43
-3.60402e-42
2.45976e-44
-2.60273e-43
1.93372e-45
-2.26304e-44
1.76151e-46
-1.61762e-45
2.22211e-48
-2.95712e-46
-4.26422e-47
-3.02515e-46
-1.69847e-47
1.60162e-46
4.26025e-47
4.4212e-46
1.99177e-47
-1.30705e-46
-2.84585e-47
-2.9142e-46
-1.31741e-47
1.33475e-46
1.16739e-47
1.60946e-46
7.41765e-48
1.72839e-47
8.38775e-49
2.54369e-48
1.18221e-49
2.08719e-49
9.90842e-51
1.94461e-50
9.09634e-52
1.34441e-51
6.35248e-53
9.76686e-53
4.5957e-54
5.91604e-54
5.58111e-55
3.43091e-55
4.61171e-54
-3.44149e-55
6.37863e-53
-5.93468e-54
9.13931e-52
-9.80117e-53
9.96732e-51
-1.34996e-51
1.19066e-49
-1.95379e-50
8.47757e-49
-2.09966e-49
7.52567e-48
-2.5618e-48
1.23892e-47
-1.74734e-47
-6.68628e-48
-1.63288e-46
-2.57692e-47
-1.48371e-46
-3.17699e-47
1.44092e-46
-4.04981e-46
8.64186e-47
-7.20015e-45
-1.47368e-45
-1.02704e-43
-2.50562e-44
-1.60047e-42
-4.51362e-43
-1.83777e-41
-6.60861e-42
-2.52653e-40
-1.11724e-40
-1.9619e-39
-1.39539e-39
-2.16252e-38
-2.2873e-38
-1.99099e-38
-2.24052e-37
2.01526e-38
-2.96511e-36
-1.98994e-37
1.79242e-40
-1.85289e-38
3.09409e-40
-2.99646e-39
5.19678e-41
-2.06625e-39
1.74301e-41
-1.77944e-40
1.65096e-42
-2.07331e-41
2.04704e-43
-1.4493e-42
1.55943e-44
-1.20294e-43
1.35062e-45
-7.55502e-45
8.83751e-47
-5.33855e-46
2.9597e-48
-5.62331e-47
-9.54267e-49
1.27264e-47
3.12825e-48
3.9761e-47
1.43568e-48
-1.17658e-47
-2.1397e-48
-2.62601e-47
-1.00352e-48
1.20173e-47
8.36794e-49
1.45205e-47
5.36931e-49
1.57952e-48
6.17352e-50
2.35261e-49
8.7726e-51
1.95023e-50
7.43787e-52
1.8281e-51
6.85924e-53
1.27206e-52
4.82577e-54
9.26541e-54
3.49883e-55
5.63206e-55
4.26752e-56
3.26749e-56
3.51103e-55
-3.27759e-56
4.84564e-54
-5.64984e-55
6.89165e-53
-9.29813e-54
7.4819e-52
-1.27736e-52
8.83461e-51
-1.83683e-51
6.23712e-50
-1.96209e-50
5.44098e-49
-2.36978e-49
8.72035e-49
-1.59754e-48
-8.91851e-49
-1.47444e-47
-8.64742e-48
-1.35324e-47
-1.29678e-46
9.68604e-48
-2.16078e-45
-5.46767e-47
-3.77374e-44
-1.36082e-45
-5.47704e-43
-2.31281e-44
-8.7079e-42
-4.29411e-43
-1.03906e-40
-6.722e-42
-1.47867e-39
-1.31844e-40
-1.24337e-38
-2.34071e-39
-1.42077e-37
-5.40281e-38
-1.31554e-37
-9.50816e-37
1.25353e-37
-1.28928e-35
-9.26537e-37
-7.10679e-40
-7.59529e-42
-4.76216e-39
-6.66408e-41
-6.51635e-39
-1.0276e-39
-3.20813e-37
-9.08022e-40
-4.51527e-48
2.01022e-39
3.20813e-37
2.01022e-39
6.51635e-39
-9.08022e-40
4.76229e-39
-1.0276e-39
7.09776e-40
-6.66464e-41
4.29998e-41
-7.47401e-42
4.17611e-42
-4.43845e-43
2.27282e-43
-3.54676e-44
-2.27285e-43
-3.93302e-45
-4.17617e-42
-3.5468e-44
-4.30008e-41
-4.43852e-43
-7.09795e-40
-7.47414e-42
-4.76254e-39
-6.66484e-41
-6.52055e-39
-1.02764e-39
-3.20856e-37
-9.08468e-40
-7.13972e-40
2.00271e-39
3.16008e-37
1.94313e-39
-7.13972e-40
-1.94313e-39
-3.20856e-37
-2.00271e-39
-6.52055e-39
9.08468e-40
-4.76254e-39
1.02764e-39
-7.09796e-40
6.66484e-41
-4.30195e-41
7.47401e-42
-4.42403e-42
4.41873e-43
-4.44061e-42
-1.2176e-46
-4.32467e-41
-4.43717e-43
-7.13726e-40
-7.50738e-42
-4.80134e-39
-6.70568e-41
-7.18708e-39
-1.03466e-39
-3.24905e-37
-9.67605e-40
-2.42479e-39
1.04221e-39
2.42477e-39
2.07022e-39
3.24905e-37
1.04221e-39
7.18313e-39
-9.67636e-40
4.77726e-39
-1.03494e-39
-7.14652e-41
-8.77505e-41
7.6131e-42
-6.20661e-40
7.89223e-41
-8.10982e-39
1.19601e-39
-1.46817e-38
1.0536e-39
6.57372e-49
-2.33753e-39
1.46817e-38
-2.33753e-39
8.10982e-39
1.0536e-39
6.20685e-40
1.19601e-39
8.77465e-41
7.89486e-41
6.01444e-42
8.43132e-42
5.74822e-43
4.94763e-43
3.33763e-44
3.83134e-44
-3.33769e-44
4.19523e-45
-5.74832e-43
3.83138e-44
-6.01459e-42
4.9477e-43
-8.77492e-41
8.43146e-42
-6.20721e-40
7.89507e-41
-8.1104e-39
1.19605e-39
-1.46878e-38
1.0541e-39
-8.83242e-41
-2.32906e-39
1.4055e-38
-2.25808e-39
-8.83242e-41
2.25808e-39
-1.46878e-38
2.32906e-39
-8.1104e-39
-1.0541e-39
-6.20721e-40
-1.19605e-39
-8.77494e-41
-7.89507e-41
-6.01733e-42
-8.43132e-42
-6.11232e-43
-4.92659e-43
-6.13648e-43
1.27512e-46
-6.05069e-42
4.94628e-43
-8.82881e-41
8.4674e-42
-6.26158e-40
7.94072e-41
-8.19209e-39
1.20398e-39
-1.52201e-38
1.12458e-39
-7.57141e-39
-1.21249e-39
7.5714e-39
-2.40896e-39
1.52201e-38
-1.21249e-39
8.19147e-39
1.1246e-39
6.21798e-40
1.20377e-39
6.42712e-41
-1.29972e-41
1.08677e-42
-5.74978e-41
1.1202e-41
-5.18787e-40
1.43953e-40
-9.12456e-40
1.23754e-40
-7.06594e-49
-2.80208e-40
9.12456e-40
-2.80208e-40
5.18787e-40
1.23754e-40
5.7498e-41
1.43953e-40
1.29425e-41
1.12058e-41
1.00154e-42
1.21303e-42
1.10132e-43
7.66014e-44
6.71185e-45
5.97678e-45
-6.71198e-45
6.83181e-46
-1.10135e-43
5.97685e-45
-1.00158e-42
7.66025e-44
-1.2943e-41
1.21305e-42
-5.75053e-41
1.12062e-41
-5.18898e-40
1.43959e-40
-9.13465e-40
1.23831e-40
-1.30532e-41
-2.78989e-40
8.5395e-40
-2.68926e-40
-1.30532e-41
2.68926e-40
-9.13465e-40
2.78989e-40
-5.18898e-40
-1.23831e-40
-5.75053e-41
-1.43959e-40
-1.29431e-41
-1.12062e-41
-1.00216e-42
-1.21303e-42
-1.17496e-43
-7.62587e-44
-1.18012e-43
2.08712e-47
-1.00887e-42
7.65793e-44
-1.30459e-41
1.21864e-42
-5.83961e-41
1.12768e-41
-5.30831e-40
1.45095e-40
-9.5791e-40
1.33818e-40
-4.73333e-40
-1.46319e-40
4.73333e-40
-2.90343e-40
9.57909e-40
-1.46319e-40
5.30813e-40
1.33821e-40
5.83084e-41
1.45063e-40
9.09886e-42
-1.20612e-42
1.9613e-43
-3.95677e-42
1.82384e-42
-2.53317e-41
2.24053e-41
-4.31415e-41
1.91542e-41
-1.1303e-49
-4.36194e-41
4.31415e-41
-4.36194e-41
2.53317e-41
1.91542e-41
3.95661e-42
2.24053e-41
1.19861e-42
1.82485e-42
1.02555e-43
2.19304e-43
1.19215e-44
1.44551e-44
7.62066e-46
1.18831e-45
-7.62082e-46
1.39254e-46
-1.19218e-44
1.18832e-45
-1.02559e-43
1.44554e-44
-1.19868e-42
2.19309e-43
-3.95744e-42
1.82492e-42
-2.53437e-41
2.24065e-41
-4.32449e-41
1.91687e-41
-1.21061e-42
-4.33989e-41
3.90815e-41
-4.178e-41
-1.21061e-42
4.178e-41
-4.32449e-41
4.33989e-41
-2.53437e-41
-1.91687e-41
-3.95744e-42
-2.24065e-41
-1.19869e-42
-1.82492e-42
-1.02627e-43
-2.19304e-43
-1.27596e-44
-1.43853e-44
-1.28194e-44
4.36032e-48
-1.03389e-43
1.44505e-44
-1.20978e-42
2.20418e-43
-4.04801e-42
1.83819e-42
-2.64389e-41
2.26113e-41
-4.59909e-41
2.07731e-41
-2.24823e-41
-2.28329e-41
2.24823e-41
-4.52517e-41
4.5991e-41
-2.28329e-41
2.64408e-41
2.07732e-41
4.06422e-42
2.2602e-41
1.45834e-42
-1.26503e-43
2.13933e-44
-2.91997e-43
1.91328e-43
-9.08062e-43
2.19683e-42
-1.39239e-42
1.8574e-42
-2.12209e-50
-4.27154e-42
1.39239e-42
-4.27154e-42
9.08055e-43
1.8574e-42
2.91947e-43
2.19683e-42
1.25302e-43
1.91457e-43
1.13837e-44
2.40407e-44
1.41112e-45
1.65991e-45
9.258e-47
1.39553e-46
-9.25821e-47
1.68345e-47
-1.41116e-45
1.39554e-46
-1.13842e-44
1.65994e-45
-1.25311e-43
2.40412e-44
-2.92049e-43
1.91466e-43
-9.09475e-43
2.19697e-42
-1.40387e-42
1.85907e-42
-1.26723e-43
-4.24736e-42
1.08895e-42
-4.07841e-42
-1.26723e-43
4.07841e-42
-1.40387e-42
4.24736e-42
-9.09475e-43
-1.85907e-42
-2.92049e-43
-2.19697e-42
-1.25311e-43
-1.91466e-43
-1.13928e-44
-2.40407e-44
-1.51324e-45
-1.65147e-45
-1.5207e-45
5.33068e-49
-1.14853e-44
1.65935e-45
-1.26622e-43
2.41712e-44
-3.02013e-43
1.92986e-43
-1.02329e-42
2.21934e-42
-1.5691e-42
2.02635e-42
-7.31345e-43
-2.24365e-42
7.31347e-43
-4.44202e-42
1.56914e-42
-2.24365e-42
1.02405e-42
2.02634e-42
3.07334e-43
2.21809e-42
1.51475e-43
-1.08504e-44
2.50093e-45
-2.05541e-44
2.10814e-44
-1.97442e-44
2.35854e-43
-1.63408e-44
1.98683e-43
-2.33485e-51
-4.58654e-43
1.63407e-44
-4.58654e-43
1.97435e-44
1.98683e-43
2.05479e-44
2.35855e-43
1.07256e-44
2.1106e-44
1.02645e-45
2.79316e-45
1.315e-46
1.97805e-46
8.8733e-48
1.70689e-47
-8.87351e-48
2.09136e-48
-1.31503e-46
1.70691e-47
-1.0265e-45
1.97809e-46
-1.07264e-44
2.79323e-45
-2.05577e-44
2.11071e-44
-1.98759e-44
2.35872e-43
-1.73769e-44
1.98882e-43
-1.08579e-44
-4.55844e-43
-5.2434e-45
-4.37349e-43
-1.08579e-44
4.37349e-43
-1.73769e-44
4.55844e-43
-1.98759e-44
-1.98882e-43
-2.05577e-44
-2.35872e-43
-1.07264e-44
-2.11071e-44
-1.02733e-45
-2.79316e-45
-1.41304e-46
-1.96756e-46
-1.4203e-46
6.7037e-50
-1.0362e-45
1.97734e-46
-1.08482e-44
2.80911e-45
-2.14518e-44
2.12878e-44
-2.95652e-44
2.38467e-43
-2.7067e-44
2.17178e-43
-9.01728e-45
-2.41293e-43
9.01763e-45
-4.77331e-43
2.70732e-44
-2.41293e-43
2.9661e-44
2.17172e-43
2.20894e-44
2.38291e-43
1.64943e-44
-9.69429e-46
8.30653e-46
-1.64577e-45
1.8046e-45
6.55159e-46
2.06128e-44
2.80351e-45
1.72593e-44
1.77468e-51
-4.00792e-44
-2.80349e-45
-4.00792e-44
-6.54981e-46
1.72601e-44
1.64416e-45
2.06219e-44
9.60534e-46
1.91557e-45
9.43754e-47
2.60834e-46
1.24317e-47
1.89984e-47
8.51656e-49
1.66427e-48
-8.51677e-49
2.07674e-49
-1.24321e-47
1.66429e-48
-9.43806e-47
1.89988e-47
-9.60615e-46
2.60841e-46
-1.6451e-45
1.91567e-45
6.42463e-46
2.06236e-44
2.70818e-45
1.72792e-44
-9.73052e-46
-3.98167e-44
-4.54297e-45
-3.81445e-44
-9.73052e-46
3.81445e-44
2.70818e-45
3.98167e-44
6.42463e-46
-1.72792e-44
-1.6451e-45
-2.06236e-44
-9.60621e-46
-1.91567e-45
-9.44618e-47
-2.60834e-46
-1.33742e-47
-1.88942e-47
-1.34448e-47
6.7069e-51
-9.53128e-47
1.89913e-47
-9.7212e-46
2.62387e-46
-1.72696e-45
1.93301e-45
-2.22758e-46
2.08653e-44
2.03707e-45
1.89322e-44
1.42141e-45
-2.11294e-44
-1.42136e-45
-4.17689e-44
-2.03632e-45
-2.11294e-44
2.33926e-46
1.89314e-44
1.79915e-45
2.08469e-44
1.48627e-45
6.41805e-47
1.33509e-45
-1.20251e-46
-1.10455e-45
1.2269e-46
1.74117e-45
3.38265e-46
1.53443e-45
2.66003e-50
-3.58951e-45
-3.37939e-46
-3.58916e-45
-1.18647e-46
1.54127e-45
1.24008e-46
1.84679e-45
7.60167e-47
1.74685e-46
7.6717e-48
2.44115e-47
1.02704e-48
1.80651e-48
7.15704e-50
1.60354e-49
-7.15722e-50
2.02143e-50
-1.02707e-48
1.60356e-49
-7.67214e-48
1.80655e-48
-7.60236e-47
2.44122e-47
-1.24086e-46
1.74695e-46
1.17612e-46
1.84695e-45
3.3019e-46
1.54308e-45
-7.70511e-47
-3.56456e-45
-4.69699e-46
-3.41263e-45
-7.70511e-47
3.41263e-45
3.3019e-46
3.56456e-45
1.17612e-46
-1.54308e-45
-1.24087e-46
-1.84695e-45
-7.60241e-47
-1.74695e-46
-7.67903e-48
-2.44115e-47
-1.10632e-48
-1.79636e-48
-1.1123e-48
6.56746e-52
-7.75055e-48
1.80581e-48
-7.69727e-47
2.45611e-47
-1.30724e-46
1.76342e-46
4.93461e-47
1.86955e-45
2.83234e-46
1.6932e-45
1.73354e-46
-1.89427e-45
-1.73349e-46
-3.74273e-45
-2.83162e-46
-1.89428e-45
-4.83179e-47
1.6931e-45
1.3726e-46
1.86765e-45
1.34609e-46
5.44963e-45
1.36507e-43
1.30857e-46
-1.80154e-44
8.18104e-47
-1.3463e-45
3.51722e-47
4.23833e-47
3.70139e-49
-2.88755e-46
-3.01143e-47
-2.84823e-46
-1.13584e-47
1.2174e-46
9.62017e-48
1.46517e-46
6.01604e-48
1.4189e-47
6.16181e-49
2.01364e-48
8.35437e-50
1.51664e-49
5.87974e-51
1.35746e-50
-5.87989e-51
1.7312e-51
-8.35462e-50
1.35748e-50
-6.16217e-49
1.51667e-49
-6.0166e-48
2.0137e-48
-9.6266e-48
1.41899e-47
1.12754e-47
1.46531e-46
2.95129e-47
1.21901e-46
-6.10018e-48
-2.82607e-46
-4.03783e-47
-2.70293e-46
-6.10018e-48
2.70293e-46
2.95129e-47
2.82607e-46
1.12754e-47
-1.21901e-46
-9.6266e-48
-1.46531e-46
-6.01664e-48
-1.41899e-47
-6.16787e-49
-2.01364e-48
-9.00619e-50
-1.50795e-49
-9.05562e-50
5.64609e-53
-6.22662e-49
1.51604e-49
-6.09374e-48
2.02628e-48
-1.01586e-47
1.4328e-47
5.882e-48
1.48392e-46
2.5993e-47
1.34063e-46
1.55021e-47
-1.50432e-46
-1.55017e-47
-2.97088e-46
-2.59865e-47
-1.50432e-46
-5.79076e-48
1.34053e-46
1.07335e-47
1.48223e-46
1.0891e-47
1.82085e-43
-4.32194e-43
1.26749e-44
-3.36315e-44
9.93329e-46
-2.13915e-45
6.2218e-47
-9.7589e-47
3.48449e-48
-3.13357e-47
-2.07061e-48
-2.59421e-47
-8.59018e-49
1.09488e-47
6.90291e-49
1.32209e-47
4.35586e-49
1.29694e-48
4.53648e-50
1.86291e-49
6.1995e-51
1.41748e-50
4.41259e-52
1.27624e-51
-4.41269e-52
1.63816e-52
-6.19966e-51
1.27626e-51
-4.53667e-50
1.41752e-50
-4.35609e-49
1.86297e-49
-6.90331e-49
1.29705e-48
8.6208e-49
1.32227e-47
2.21074e-48
1.09754e-47
-4.41811e-49
-2.54938e-47
-2.99229e-48
-2.43701e-47
-4.41811e-49
2.43701e-47
2.21074e-48
2.54938e-47
8.6208e-49
-1.09754e-47
-6.90331e-49
-1.32227e-47
-4.35612e-49
-1.29705e-48
-4.54097e-50
-1.86291e-49
-6.6889e-51
-1.40927e-50
-6.72613e-51
5.35403e-54
-4.58506e-50
1.41692e-50
-4.41327e-49
1.8748e-49
-7.2945e-49
1.30994e-48
4.72365e-49
1.33948e-47
1.96271e-48
1.20848e-47
1.16221e-48
-1.35835e-47
-1.16217e-48
-2.68181e-47
-1.96219e-48
-1.35836e-47
-4.65217e-49
1.20837e-47
7.74266e-49
1.33783e-47
9.92341e-49
1.00953e-38
-1.63612e-37
8.27182e-39
-4.29054e-38
1.16203e-39
-3.55156e-38
3.30339e-40
-2.6836e-39
2.89444e-41
-3.02733e-40
3.45359e-42
-1.98422e-41
2.52043e-43
-1.61586e-42
2.14104e-44
-9.75327e-44
1.37531e-45
-6.59778e-45
9.48686e-47
-3.68981e-46
5.39435e-48
-2.10367e-47
5.67345e-49
6.61913e-49
1.27338e-49
-5.83301e-49
-1.65766e-49
-1.17548e-48
-7.84998e-50
5.36001e-49
6.40749e-50
6.49393e-49
4.12762e-50
7.17734e-50
4.78138e-51
1.08742e-50
6.82286e-52
9.13999e-52
5.8124e-53
8.65995e-53
5.36577e-54
6.08758e-54
3.783e-55
4.46365e-55
2.7399e-56
2.73225e-56
3.34016e-57
1.59102e-57
2.74493e-56
-1.59577e-57
3.78684e-55
-2.74042e-56
5.36121e-54
-4.47815e-55
5.77411e-53
-6.1096e-54
6.6968e-52
-8.69268e-53
4.43655e-51
-9.1742e-52
3.29771e-50
-1.0902e-50
-1.17695e-49
-7.14147e-50
-3.93273e-48
-6.33013e-49
-7.39669e-47
-5.05282e-50
-1.43582e-45
1.18906e-47
-2.43983e-44
2.13804e-46
-4.39513e-43
4.05951e-45
-6.51491e-42
6.6925e-44
-1.08573e-40
1.07736e-42
-1.33825e-39
9.77197e-42
-2.05758e-38
-1.12393e-40
-1.82919e-37
-1.34383e-38
-2.43258e-36
-5.33234e-37
-2.26344e-36
-1.5257e-35
2.279e-36
-7.18859e-36
-1.53098e-35
2.37901e-36
3.74625e-37
-2.20636e-37
2.45723e-37
-1.70682e-37
2.17281e-38
-3.81443e-38
3.46132e-39
-2.63233e-39
2.67499e-40
-2.84044e-40
2.76521e-41
-1.83882e-41
1.91788e-42
-1.49265e-42
1.54122e-43
-8.98249e-44
9.66541e-45
-6.07305e-45
6.51802e-46
-3.38075e-46
3.7239e-47
-1.98922e-47
2.20586e-48
-9.41583e-49
1.19692e-49
-7.91173e-50
-7.81422e-52
-5.84761e-50
-2.94997e-51
2.54047e-50
2.64275e-51
3.09692e-50
1.69952e-51
3.44973e-51
1.99133e-52
5.2238e-52
2.8653e-53
4.40871e-53
2.46266e-54
4.16639e-54
2.28503e-55
2.9318e-55
1.62066e-56
2.14157e-56
1.17695e-57
1.30931e-57
1.44511e-58
7.59106e-59
1.19329e-57
-7.59735e-59
1.65901e-56
-1.3089e-57
2.37575e-55
-2.13692e-56
2.67039e-54
-2.91241e-55
3.34248e-53
-4.10625e-54
3.03871e-52
-4.24152e-53
3.99061e-51
-4.80042e-52
4.9781e-50
-2.44878e-51
9.6295e-49
-8.30704e-51
1.82391e-47
4.52266e-49
3.46256e-46
9.97653e-48
5.87512e-45
1.88086e-46
1.0247e-43
3.58881e-45
1.52043e-42
5.94417e-44
2.42383e-41
9.68072e-43
3.00163e-40
9.39342e-42
4.32731e-39
-6.64441e-41
3.89837e-38
-1.06365e-38
4.66386e-37
-4.32843e-37
6.427e-37
-1.26104e-35
8.31822e-39
-1.12789e-33
-1.26628e-35
-2.12533e-37
1.84443e-35
-9.50054e-36
4.50486e-37
-2.30681e-37
3.39343e-37
2.34341e-38
5.34028e-38
2.2233e-39
3.70128e-39
2.76825e-40
3.78373e-40
1.83773e-41
2.48168e-41
1.5035e-42
1.975e-42
9.0576e-44
1.19734e-43
6.1212e-45
8.00794e-45
3.40518e-46
4.47279e-46
2.00587e-47
2.6186e-47
1.03642e-48
1.35124e-48
5.3424e-50
7.06692e-50
2.60296e-52
3.25683e-51
1.19523e-51
2.75614e-52
1.30679e-51
8.03621e-53
1.46867e-52
8.92896e-54
2.23431e-53
1.25102e-54
1.90105e-54
1.07166e-55
1.80194e-55
9.89006e-57
1.27467e-56
7.00827e-58
9.3217e-58
5.08534e-59
5.71521e-59
1.07429e-59
3.30541e-60
1.73132e-58
-3.51769e-60
3.87014e-57
-6.27083e-59
9.00508e-56
-1.08016e-57
2.05026e-54
-1.65462e-56
4.737e-53
-2.76037e-55
1.04939e-51
-4.21351e-54
2.31577e-50
-7.72662e-53
4.80927e-49
-1.38189e-51
9.91921e-48
-2.87783e-50
1.88643e-46
-5.71283e-49
3.60155e-45
-1.1813e-47
6.15552e-44
-2.23114e-46
1.08212e-42
-4.26078e-45
1.62197e-41
-7.0114e-44
2.61468e-40
-1.12261e-42
3.28861e-39
-9.46954e-42
4.82627e-38
1.60142e-40
4.48205e-37
1.6052e-38
5.56693e-36
6.30226e-37
5.36198e-36
1.80428e-35
1.43072e-35
1.26185e-33
1.80902e-35
-4.57815e-36
4.11392e-37
-1.61889e-37
2.05635e-37
-1.06559e-37
1.89712e-38
2.96781e-38
3.11675e-39
2.50648e-39
2.45853e-40
2.97803e-40
2.5814e-41
1.97048e-41
1.80924e-42
1.61018e-42
1.46607e-43
9.72622e-44
9.2509e-45
6.58047e-45
6.27046e-46
3.66896e-46
3.59727e-47
2.16331e-47
2.12841e-48
1.11604e-48
1.11947e-49
5.88534e-50
5.91974e-51
2.71964e-51
2.82523e-52
1.81617e-52
1.83308e-53
6.21127e-53
3.50308e-54
6.62068e-54
3.6938e-55
9.76725e-55
5.03638e-56
8.2846e-56
4.30845e-57
7.80316e-57
3.96316e-58
5.51544e-58
2.81271e-59
4.01531e-59
2.03236e-60
2.45718e-60
2.86232e-61
1.35479e-61
2.95264e-60
-3.21733e-61
5.02431e-59
-7.4051e-60
8.75913e-58
-1.73129e-58
1.49481e-56
-3.99126e-57
2.49873e-55
-9.48943e-56
4.40629e-54
-2.19145e-54
6.14183e-53
-5.10959e-53
1.05428e-51
-1.13516e-51
4.93106e-51
-2.51456e-50
5.38778e-50
-5.20992e-49
-6.70058e-48
-1.07773e-47
-1.14275e-46
-2.0359e-46
-5.07568e-45
-3.87768e-45
-7.05575e-44
-6.37228e-44
-2.15781e-42
-1.00831e-42
-2.42044e-41
-7.97304e-42
-6.28688e-40
1.77307e-40
-4.86863e-39
1.58151e-38
-1.11798e-37
6.11723e-37
1.03658e-37
1.72897e-35
5.47108e-37
1.07442e-35
1.73415e-35
3.53863e-37
3.01976e-38
-1.31581e-37
-1.35849e-38
-7.86988e-39
-3.62721e-40
1.56239e-39
1.38902e-40
1.63636e-40
1.68222e-41
2.06694e-41
2.42224e-42
1.47901e-42
1.90815e-43
1.2422e-43
1.71724e-44
7.84493e-45
1.14105e-45
5.40096e-46
8.11259e-47
3.09939e-47
4.77951e-48
1.85035e-48
2.89755e-49
9.73806e-50
1.54562e-50
5.18666e-51
8.28798e-52
2.48145e-52
4.03311e-53
1.40189e-53
2.14334e-54
2.75841e-54
2.03006e-55
2.76904e-55
1.75481e-56
3.94318e-56
2.11839e-57
3.33721e-57
1.7609e-58
3.12914e-58
1.5881e-59
2.21491e-59
1.11753e-60
1.60899e-60
1.15431e-62
9.87005e-62
-1.88921e-60
1.11897e-62
-5.13159e-59
1.52281e-61
-1.33413e-57
4.26144e-60
-3.40441e-56
1.16317e-58
-8.27632e-55
3.03696e-57
-1.9836e-53
7.76618e-56
-4.48169e-52
1.88795e-54
-1.0055e-50
4.52495e-53
-2.0937e-49
1.02003e-51
-4.38077e-48
2.28719e-50
-8.30888e-47
4.74408e-49
-1.61518e-45
9.92244e-48
-2.74342e-44
1.87149e-46
-4.93909e-43
3.64169e-45
-7.31702e-42
6.15077e-44
-1.21856e-40
1.12026e-42
-1.50082e-39
1.69746e-41
-2.3057e-38
3.09092e-40
-2.04769e-37
4.77138e-39
-2.72124e-36
9.82672e-38
-2.53239e-36
1.51981e-36
2.54995e-36
2.04596e-35
1.52324e-36
2.67255e-36
1.38766e-39
-1.95192e-38
-1.08772e-39
-1.14593e-39
-5.9983e-41
7.09269e-41
3.4877e-42
1.12753e-41
7.26192e-43
1.89254e-42
1.26464e-43
1.4924e-43
1.08462e-44
1.382e-44
1.0223e-45
9.15235e-46
7.07469e-47
6.59175e-47
5.14134e-48
3.87894e-48
3.10434e-49
2.3695e-49
1.90703e-50
1.26405e-50
1.03404e-51
6.81489e-52
5.5961e-53
3.31923e-53
2.76074e-54
1.69551e-54
1.41716e-55
1.60783e-55
1.03823e-56
1.33033e-56
7.81311e-58
1.65825e-57
8.42122e-59
1.36345e-58
6.7925e-60
1.25186e-59
5.99993e-61
8.8061e-61
4.2286e-62
6.34938e-62
9.35676e-63
4.26885e-63
1.76012e-61
1.17889e-62
4.74219e-60
3.30678e-61
1.2294e-58
9.12683e-60
3.12027e-57
2.46777e-58
7.56026e-56
6.40077e-57
1.79863e-54
1.63082e-55
4.04502e-53
3.95516e-54
8.97991e-52
9.4667e-53
1.85738e-50
2.13275e-51
3.82744e-49
4.77921e-50
7.18844e-48
9.91385e-49
1.3665e-46
2.07248e-47
2.2869e-45
3.91046e-46
3.98113e-44
7.6041e-45
5.76083e-43
1.28436e-43
9.0994e-42
2.33255e-42
1.07636e-40
3.50804e-41
1.51305e-39
6.26244e-40
1.24732e-38
9.20073e-39
1.40307e-37
1.80729e-37
1.29391e-37
2.60547e-36
-1.2893e-37
3.50325e-35
2.60482e-36
-1.37372e-37
1.2507e-40
-1.11339e-39
-1.27408e-40
-7.48524e-41
-8.23413e-42
1.25502e-42
-3.17747e-43
4.77678e-43
1.63689e-44
9.90792e-44
6.71149e-45
8.5191e-45
6.77538e-46
8.29521e-46
7.11437e-47
5.7322e-47
5.18947e-48
4.22706e-48
3.93415e-49
2.55168e-49
2.43584e-50
1.58049e-50
1.52749e-51
8.57353e-52
8.39179e-53
4.66482e-53
4.5897e-54
2.30327e-54
2.28248e-55
1.15799e-55
1.14528e-56
8.38846e-57
6.67567e-58
6.04408e-58
4.15841e-59
6.62684e-59
3.63492e-60
5.27628e-60
2.71923e-61
4.73275e-61
2.2984e-62
3.30858e-62
6.04256e-63
2.37097e-63
1.28066e-61
2.42159e-64
3.5336e-60
2.87756e-63
9.55341e-59
8.21513e-62
2.48011e-57
2.2686e-60
6.31768e-56
6.13998e-59
1.53416e-54
1.59371e-57
3.67018e-53
4.06589e-56
8.28332e-52
9.8698e-55
1.85422e-50
2.36633e-53
3.85625e-49
5.3369e-52
8.04489e-48
1.19861e-50
1.5236e-46
2.49049e-49
2.95002e-45
5.22955e-48
5.00133e-44
9.95303e-47
8.95461e-43
1.99391e-45
1.32328e-41
3.73206e-44
2.18626e-40
8.89779e-43
2.68299e-39
2.53338e-41
4.07169e-38
9.56341e-40
3.59509e-37
3.53343e-38
4.67626e-36
1.16908e-36
4.35548e-36
3.02082e-35
-4.35324e-36
7.09505e-35
3.01801e-35
-4.57992e-36
6.69689e-42
-1.05939e-40
-7.10682e-42
-7.13987e-42
-5.11756e-43
-3.03379e-43
-3.18101e-44
7.79354e-45
-2.7514e-46
5.16232e-45
2.60851e-46
5.20399e-46
3.11419e-47
5.65668e-47
3.54396e-48
4.1153e-48
2.70949e-49
3.16527e-49
2.11308e-50
1.9586e-50
1.34054e-51
1.23808e-51
8.53076e-53
6.80452e-53
4.75677e-54
3.7407e-54
2.62476e-55
1.86189e-55