/*--------------------------------*- C++ -*----------------------------------*\
| =========                 |                                                 |
| \\      /  F ield         | OpenFOAM: The Open Source CFD Toolbox           |
|  \\    /   O peration     | Version:  2.4.0                                 |
|   \\  /    A nd           | Web:      www.OpenFOAM.org                      |
|    \\/     M anipulation  |                                                 |
\*---------------------------------------------------------------------------*/
FoamFile
{
    version     2.0;
    format      ascii;
    class       volVectorField;
    location    "0.3";
    object      U;
}
// * * * * * * * * * * * * * * * * * * * * * * * * * * * * * * * * * * * * * //

dimensions      [0 1 -1 0 0 0 0];

internalField   nonuniform List<vector> 
7700
(
(1.56319e-36 3.89834e-37 0)
(2.39424e-35 3.58973e-36 0)
(1.43013e-34 5.00014e-35 0)
(2.59715e-33 4.3563e-35 0)
(2.47672e-33 -9.75884e-35 0)
(-2.47653e-33 -9.75624e-35 0)
(-2.59546e-33 4.39966e-35 0)
(-1.17524e-34 5.40017e-35 0)
(1.43184e-34 5.72108e-35 0)
(2.74033e-33 9.44076e-35 0)
(5.09934e-33 -4.99752e-35 0)
(1.68652e-34 -1.41151e-34 0)
(-2.30804e-33 4.3563e-35 0)
(2.50235e-33 9.35642e-35 0)
(2.59885e-33 -4.39987e-35 0)
(1.43184e-34 -5.00297e-35 0)
(2.39593e-35 -3.59283e-36 0)
(1.53082e-36 -4.07645e-37 0)
(1.59784e-37 -2.61063e-38 0)
(1.00443e-38 -2.13119e-39 0)
(8.06505e-40 -1.27014e-40 0)
(4.7718e-41 -8.59927e-42 0)
(3.205e-42 -4.75607e-43 0)
(1.86703e-43 -2.66109e-44 0)
(1.87177e-43 2.66867e-44 0)
(3.21481e-42 4.76971e-43 0)
(4.7884e-41 8.62588e-42 0)
(8.09532e-40 1.27461e-40 0)
(1.00888e-38 2.13931e-39 0)
(1.60543e-37 2.62246e-38 0)
(1.54005e-36 4.09648e-37 0)
(2.4109e-35 3.61679e-36 0)
(1.44553e-34 5.0411e-35 0)
(2.62126e-33 4.71796e-35 0)
(2.62126e-33 -4.71796e-35 0)
(1.44553e-34 -5.0411e-35 0)
(2.4109e-35 -3.61679e-36 0)
(1.54005e-36 -4.09648e-37 0)
(1.60543e-37 -2.62246e-38 0)
(1.00888e-38 -2.13931e-39 0)
(8.0953e-40 -1.27465e-40 0)
(4.78621e-41 -8.66387e-42 0)
(3.0803e-42 -9.34058e-43 0)
(-1.0885e-42 -2.82227e-42 0)
(3.52787e-44 -2.67682e-41 0)
(1.4095e-42 -2.07273e-42 0)
(2.14417e-37 -1.82068e-37 0)
(2.94722e-36 -1.83102e-36 0)
(1.87789e-35 -2.55367e-35 0)
(2.38303e-34 -2.22438e-35 0)
(2.2228e-34 4.98282e-35 0)
(-2.22255e-34 4.98154e-35 0)
(-2.38067e-34 -2.24599e-35 0)
(-1.56145e-35 -2.75726e-35 0)
(1.88026e-35 -2.92141e-35 0)
(2.57106e-34 -4.82007e-35 0)
(4.63747e-34 2.55238e-35 0)
(2.19639e-35 7.2072e-35 0)
(-2.00314e-34 -2.22438e-35 0)
(2.25465e-34 -4.77804e-35 0)
(2.38541e-34 2.24609e-35 0)
(1.88026e-35 2.55506e-35 0)
(2.94989e-36 1.83283e-36 0)
(2.14667e-37 2.03221e-37 0)
(2.20003e-38 1.28722e-38 0)
(1.47731e-39 1.03455e-39 0)
(1.18264e-40 6.10538e-41 0)
(7.28377e-42 4.09235e-42 0)
(4.90576e-43 2.24626e-43 0)
(2.93824e-44 1.24861e-44 0)
(2.94589e-44 -1.25213e-44 0)
(4.92126e-43 -2.25262e-43 0)
(7.30986e-42 -4.10483e-42 0)
(1.18726e-40 -6.12652e-41 0)
(1.4841e-39 -1.03842e-39 0)
(2.21112e-38 -1.29291e-38 0)
(2.16025e-37 -2.04194e-37 0)
(2.9704e-36 -1.84466e-36 0)
(1.8995e-35 -2.57408e-35 0)
(2.41274e-34 -2.40884e-35 0)
(2.41274e-34 2.40884e-35 0)
(1.8995e-35 2.57408e-35 0)
(2.9704e-36 1.84466e-36 0)
(2.16025e-37 2.04194e-37 0)
(2.21112e-38 1.29291e-38 0)
(1.4841e-39 1.03841e-39 0)
(1.18698e-40 6.12168e-41 0)
(6.96938e-42 3.6042e-42 0)
(-1.60215e-42 -5.88232e-42 0)
(-1.99378e-41 -3.79927e-41 0)
(3.70888e-43 -3.69687e-40 0)
(2.1933e-41 -2.83295e-41 0)
(3.7016e-38 -2.47806e-38 0)
(4.26708e-37 -2.51652e-37 0)
(1.57905e-36 -2.93583e-36 0)
(1.48117e-35 -2.48287e-36 0)
(1.36286e-35 5.70023e-36 0)
(-1.36238e-35 5.69834e-36 0)
(-1.47725e-35 -2.51267e-36 0)
(-1.11698e-36 -3.21563e-36 0)
(1.58354e-36 -3.44138e-36 0)
(1.63953e-35 -5.47655e-36 0)
(2.89021e-35 2.93393e-36 0)
(2.04498e-36 8.1831e-36 0)
(-1.1583e-35 -2.48287e-36 0)
(1.40945e-35 -5.41869e-36 0)
(1.48512e-35 2.51282e-36 0)
(1.58354e-36 2.93789e-36 0)
(4.2705e-37 2.51905e-37 0)
(3.50358e-38 2.79085e-38 0)
(4.17627e-39 1.90163e-39 0)
(2.96199e-40 1.52731e-40 0)
(2.52142e-41 9.40088e-42 0)
(1.59665e-42 6.32284e-43 0)
(1.10698e-43 3.57148e-44 0)
(6.73131e-45 1.99434e-45 0)
(6.74917e-45 -2.00012e-45 0)
(1.11058e-43 -3.58187e-44 0)
(1.60262e-42 -6.34278e-43 0)
(2.53185e-41 -9.43449e-42 0)
(2.97684e-40 -1.53327e-40 0)
(4.19988e-39 -1.9104e-39 0)
(3.53065e-38 -2.80518e-38 0)
(4.30927e-37 -2.53652e-37 0)
(1.61435e-36 -2.96388e-36 0)
(1.52426e-35 -2.73651e-36 0)
(1.52426e-35 2.73651e-36 0)
(1.61435e-36 2.96388e-36 0)
(4.30927e-37 2.53652e-37 0)
(3.53065e-38 2.80518e-38 0)
(4.19988e-39 1.91039e-39 0)
(2.97648e-40 1.53286e-40 0)
(2.49404e-41 8.84216e-42 0)
(-3.0042e-42 -5.51425e-42 0)
(-2.84058e-41 -7.57231e-41 0)
(-2.76444e-40 -4.76426e-40 0)
(4.67687e-42 -4.69094e-39 0)
(3.01672e-40 -3.57255e-40 0)
(3.82257e-39 -4.82597e-39 0)
(3.89938e-38 -4.34972e-38 0)
(9.85387e-38 -4.85019e-37 0)
(6.9766e-37 -4.07736e-37 0)
(6.35011e-37 9.42068e-37 0)
(-6.34491e-37 9.41684e-37 0)
(-6.93653e-37 -4.13535e-37 0)
(-5.5962e-38 -5.33983e-37 0)
(9.90232e-38 -5.72477e-37 0)
(7.9668e-37 -9.03997e-37 0)
(1.37521e-36 4.84629e-37 0)
(1.41528e-37 1.3498e-36 0)
(-4.93417e-37 -4.07736e-37 0)
(6.77999e-37 -8.9275e-37 0)
(7.01694e-37 4.13568e-37 0)
(9.90232e-38 4.85438e-37 0)
(3.90238e-38 4.35547e-38 0)
(3.55402e-39 5.41496e-39 0)
(4.49983e-40 3.86773e-40 0)
(3.36003e-41 3.29697e-41 0)
(2.9289e-42 2.08681e-42 0)
(1.91173e-43 1.44548e-43 0)
(1.34288e-44 8.28685e-45 0)
(8.33144e-46 4.69207e-46 0)
(8.35401e-46 -4.70586e-46 0)
(1.34736e-44 -8.31145e-45 0)
(1.91911e-43 -1.45017e-43 0)
(2.94154e-42 -2.0946e-42 0)
(3.37779e-41 -3.31059e-41 0)
(4.52719e-40 -3.88714e-40 0)
(3.58467e-39 -5.44583e-39 0)
(3.94398e-38 -4.39082e-38 0)
(1.02121e-37 -4.90462e-37 0)
(7.37096e-37 -4.51642e-37 0)
(7.37096e-37 4.51642e-37 0)
(1.02121e-37 4.90462e-37 0)
(3.94398e-38 4.39082e-38 0)
(3.58467e-39 5.44582e-39 0)
(4.52688e-40 3.88679e-40 0)
(3.33296e-41 3.26239e-41 0)
(-1.70491e-42 -4.95979e-42 0)
(-5.6984e-41 -7.36392e-41 0)
(-3.57664e-40 -9.25222e-40 0)
(-3.51027e-39 -5.90148e-39 0)
(5.25651e-41 -5.94861e-38 0)
(3.80014e-39 -4.45905e-39 0)
(3.8962e-40 -8.72231e-40 0)
(4.05508e-39 -4.58799e-39 0)
(6.06691e-39 -4.70057e-38 0)
(2.18897e-38 -3.89673e-38 0)
(1.95222e-38 9.1085e-38 0)
(-1.94604e-38 9.10418e-38 0)
(-2.14433e-38 -3.95946e-38 0)
(-1.63399e-39 -5.2083e-38 0)
(6.12043e-39 -5.60669e-38 0)
(2.80072e-38 -8.71499e-38 0)
(4.58332e-38 4.69199e-38 0)
(1.05409e-38 1.30049e-37 0)
(-8.97294e-39 -3.8963e-38 0)
(2.39995e-38 -8.59267e-38 0)
(2.23343e-38 3.95984e-38 0)
(6.12043e-39 4.70121e-38 0)
(4.03893e-39 4.53148e-39 0)
(3.9043e-40 5.8779e-40 0)
(5.30296e-41 4.40609e-41 0)
(4.07682e-42 3.84159e-42 0)
(3.65639e-43 2.50616e-43 0)
(2.42581e-44 1.7588e-44 0)
(1.72742e-45 1.0284e-45 0)
(1.0819e-46 5.8684e-47 0)
(1.08487e-46 -5.88601e-47 0)
(1.73328e-45 -1.03152e-45 0)
(2.43538e-44 -1.76466e-44 0)
(3.67263e-43 -2.51582e-43 0)
(4.09934e-42 -3.85815e-42 0)
(5.33708e-41 -4.42938e-41 0)
(3.94138e-40 -5.91379e-40 0)
(4.08784e-39 -4.57167e-39 0)
(6.4571e-39 -4.75553e-38 0)
(2.59746e-38 -4.35344e-38 0)
(2.59746e-38 4.35344e-38 0)
(6.4571e-39 4.75553e-38 0)
(4.08784e-39 4.57167e-39 0)
(3.94111e-40 5.91357e-40 0)
(5.30055e-41 4.39271e-41 0)
(-1.24454e-42 -1.13945e-42 0)
(-5.54353e-41 -7.35754e-41 0)
(-6.98783e-40 -7.8054e-40 0)
(-4.43395e-39 -9.92865e-39 0)
(-4.45573e-38 -6.4786e-38 0)
(5.67382e-40 -6.62748e-37 0)
(4.78279e-38 -4.95103e-38 0)
(-5.20107e-40 -4.1041e-39 0)
(5.85872e-40 -1.28003e-39 0)
(4.10962e-40 -5.66632e-39 0)
(2.17063e-40 -4.30295e-39 0)
(1.36887e-40 9.96979e-39 0)
(-1.27454e-40 9.97135e-39 0)
(-1.45721e-40 -4.32539e-39 0)
(1.33473e-41 -5.72223e-39 0)
(3.70222e-40 -6.16668e-39 0)
(5.55912e-40 -9.5387e-39 0)
(6.97139e-40 5.13779e-39 0)
(7.47615e-40 1.42275e-38 0)
(6.14733e-40 -4.25024e-39 0)
(5.16371e-40 -9.39337e-39 0)
(2.26013e-40 4.32582e-39 0)
(3.70222e-40 5.14904e-39 0)
(3.43243e-40 5.09334e-40 0)
(3.50071e-41 6.97634e-41 0)
(4.92744e-42 5.36827e-42 0)
(3.90521e-43 4.81123e-43 0)
(3.55935e-44 3.18996e-44 0)
(2.40688e-45 2.2695e-45 0)
(1.72942e-46 1.33922e-46 0)
(1.09691e-47 7.68988e-48 0)
(1.09995e-47 -7.71312e-48 0)
(1.73538e-46 -1.34333e-46 0)
(2.41658e-45 -2.27719e-45 0)
(3.5756e-44 -3.20254e-44 0)
(3.92754e-43 -4.83258e-43 0)
(4.9606e-42 -5.39789e-42 0)
(3.53617e-41 -7.02124e-41 0)
(3.47775e-40 -5.14217e-40 0)
(4.0023e-40 -5.21337e-39 0)
(5.33466e-40 -4.76442e-39 0)
(5.33466e-40 4.76442e-39 0)
(4.00229e-40 5.21337e-39 0)
(3.47758e-40 5.14203e-40 0)
(3.50831e-41 6.99919e-41 0)
(1.16731e-42 1.67984e-42 0)
(-5.56002e-41 -5.06177e-41 0)
(-5.90943e-40 -7.68794e-40 0)
(-7.50592e-39 -8.25065e-39 0)
(-4.87043e-38 -1.07955e-37 0)
(-4.96831e-37 -7.25069e-37 0)
(4.86268e-39 -7.69125e-36 0)
(5.27219e-37 -5.61974e-37 0)
(-6.24579e-39 -4.67e-38 0)
(2.9059e-39 -8.54842e-39 0)
(5.94339e-40 -6.17047e-39 0)
(3.39807e-40 -9.34993e-40 0)
(-1.18798e-41 7.89496e-40 0)
(5.77613e-41 8.61821e-40 0)
(5.76542e-41 -3.75018e-40 0)
(7.98853e-42 -5.00704e-40 0)
(2.63894e-41 -5.40773e-40 0)
(-2.71459e-41 -8.29023e-40 0)
(-7.13029e-41 4.47512e-40 0)
(6.01356e-41 1.236e-39 0)
(1.11767e-40 -3.67435e-40 0)
(-1.7306e-41 -8.15459e-40 0)
(-4.98263e-41 3.74497e-40 0)
(2.63866e-41 4.48592e-40 0)
(3.06269e-41 4.61392e-41 0)
(3.20436e-42 6.50295e-42 0)
(4.64856e-43 5.15229e-43 0)
(3.74627e-44 4.69063e-44 0)
(3.46257e-45 3.16972e-45 0)
(2.36581e-46 2.27545e-46 0)
(1.71153e-47 1.35941e-47 0)
(1.09221e-48 7.84433e-49 0)
(1.09525e-48 -7.86831e-49 0)
(1.71749e-47 -1.36364e-47 0)
(2.37547e-46 -2.28329e-46 0)
(3.47864e-45 -3.18248e-45 0)
(3.7682e-44 -4.71201e-44 0)
(4.6808e-43 -5.18169e-43 0)
(3.23832e-42 -6.54666e-42 0)
(3.10539e-41 -4.66071e-41 0)
(2.91191e-41 -4.54573e-40 0)
(-2.24788e-41 -4.14039e-40 0)
(-2.24793e-41 4.14039e-40 0)
(2.91088e-41 4.54568e-40 0)
(3.08861e-41 4.64981e-41 0)
(4.10084e-43 4.76774e-42 0)
(-3.83713e-41 -2.97174e-41 0)
(-5.83782e-40 -4.19738e-40 0)
(-6.25251e-39 -6.40358e-39 0)
(-8.16468e-38 -7.02681e-38 0)
(-5.44597e-37 -9.41044e-37 0)
(-5.76369e-36 -6.65017e-36 0)
(3.87604e-38 -7.18257e-35 0)
(6.04852e-36 -5.26768e-36 0)
(-6.73446e-38 -4.55784e-37 0)
(3.77002e-38 -9.19992e-38 0)
(6.71069e-39 -6.57058e-38 0)
(4.31791e-39 -6.34966e-39 0)
(4.22052e-40 -7.83648e-40 0)
(6.56019e-41 1.22982e-41 0)
(1.11601e-41 -3.97477e-41 0)
(1.26719e-42 -4.57788e-41 0)
(1.90949e-42 -4.909e-41 0)
(-4.26569e-42 -7.49329e-41 0)
(-9.27092e-42 4.04711e-41 0)
(4.54922e-42 1.11683e-40 0)
(1.03504e-41 -3.31274e-41 0)
(-3.08457e-42 -7.36478e-41 0)
(-5.84693e-42 3.3796e-41 0)
(1.88039e-42 4.05751e-41 0)
(2.41596e-42 4.24828e-42 0)
(2.59779e-43 6.14871e-43 0)
(3.83419e-44 4.95055e-44 0)
(3.14739e-45 4.56948e-45 0)
(2.93525e-46 3.11994e-46 0)
(2.0297e-47 2.25503e-47 0)
(1.47561e-48 1.35526e-48 0)
(9.48935e-50 7.84176e-50 0)
(9.51599e-50 -7.86582e-50 0)
(1.48079e-48 -1.3595e-48 0)
(2.03809e-47 -2.26287e-47 0)
(2.94911e-46 -3.13266e-46 0)
(3.1662e-45 -4.59067e-45 0)
(3.8615e-44 -4.97947e-44 0)
(2.6263e-43 -6.19125e-43 0)
(2.45112e-42 -4.29318e-42 0)
(2.10123e-42 -4.11398e-41 0)
(-3.6973e-42 -3.74204e-41 0)
(-3.70151e-42 3.74177e-41 0)
(2.01803e-42 4.10928e-41 0)
(1.09335e-42 3.4033e-42 0)
(-2.2802e-41 -1.40413e-41 0)
(-3.19887e-40 -2.54e-40 0)
(-4.87401e-39 -3.57903e-39 0)
(-5.33137e-38 -5.62823e-38 0)
(-7.11249e-37 -6.34989e-37 0)
(-4.96519e-36 -8.94799e-36 0)
(-5.35638e-35 -6.71982e-35 0)
(1.2448e-37 -7.73163e-34 0)
(5.51305e-35 -5.46389e-35 0)
(-5.31744e-37 -4.78374e-36 0)
(4.84232e-37 -8.54774e-37 0)
(8.34132e-38 -5.90051e-37 0)
(4.99905e-38 -5.54946e-38 0)
(4.76253e-39 -7.24269e-39 0)
(6.51398e-40 -5.38634e-40 0)
(5.06022e-41 -5.06346e-41 0)
(4.58508e-42 -6.75347e-42 0)
(4.42172e-43 -4.13081e-42 0)
(-3.78754e-43 -5.9482e-42 0)
(-8.38229e-43 3.2095e-42 0)
(3.53497e-43 8.84359e-42 0)
(8.62354e-43 -2.61468e-42 0)
(-2.93914e-43 -5.8291e-42 0)
(-5.18275e-43 2.66998e-42 0)
(1.42293e-43 3.21902e-42 0)
(1.90873e-43 3.45351e-43 0)
(2.08227e-44 5.07791e-44 0)
(3.11544e-45 4.16333e-45 0)
(2.5851e-46 3.87711e-46 0)
(2.42707e-47 2.6791e-47 0)
(1.68975e-48 1.94593e-48 0)
(1.23206e-49 1.17838e-49 0)
(7.9529e-51 6.8337e-51 0)
(7.97527e-51 -6.85478e-51 0)
(1.2364e-49 -1.18209e-49 0)
(1.69678e-48 -1.95276e-48 0)
(2.43863e-47 -2.69016e-47 0)
(2.60075e-46 -3.89539e-46 0)
(3.138e-45 -4.18816e-45 0)
(2.10565e-44 -5.11398e-44 0)
(1.93722e-43 -3.49124e-43 0)
(1.59858e-43 -3.26561e-42 0)
(-3.5068e-43 -2.96439e-42 0)
(-3.84757e-43 2.95109e-42 0)
(-5.21938e-43 3.02885e-42 0)
(-1.1036e-41 -4.15845e-42 0)
(-1.94452e-40 -7.48376e-41 0)
(-2.73667e-39 -1.31207e-39 0)
(-4.29399e-38 -1.88516e-38 0)
(-4.8155e-37 -3.0362e-37 0)
(-6.72903e-36 -3.61196e-36 0)
(-4.92624e-35 -5.36793e-35 0)
(-5.67908e-34 -4.63571e-34 0)
(-3.10209e-37 -5.44715e-33 0)
(5.75453e-34 -3.94335e-34 0)
(-2.68754e-36 -3.71967e-35 0)
(7.803e-36 -8.26053e-36 0)
(1.02737e-36 -6.29858e-36 0)
(4.55761e-37 -5.59357e-37 0)
(4.16843e-38 -7.05322e-38 0)
(5.43325e-39 -5.07807e-39 0)
(4.08891e-40 -4.37731e-40 0)
(3.61614e-41 -2.81547e-41 0)
(2.38451e-42 -2.25067e-42 0)
(1.3767e-43 -5.80083e-43 0)
(-5.32023e-44 2.46797e-43 0)
(2.59681e-44 6.97368e-43 0)
(6.33104e-44 -2.05937e-43 0)
(-2.23369e-44 -4.59749e-43 0)
(-3.87288e-44 2.10402e-43 0)
(1.00888e-44 2.54207e-43 0)
(1.37928e-44 2.76366e-44 0)
(1.53092e-45 4.11376e-45 0)
(2.30967e-46 3.40842e-46 0)
(1.9398e-47 3.19366e-47 0)
(1.82924e-48 2.22141e-48 0)
(1.28347e-49 1.6176e-49 0)
(9.37735e-51 9.83003e-51 0)
(6.08108e-52 5.70212e-52 0)
(6.09819e-52 -5.71973e-52 0)
(9.41047e-51 -9.86107e-51 0)
(1.28881e-49 -1.62331e-49 0)
(1.83796e-48 -2.23066e-48 0)
(1.95149e-47 -3.20891e-47 0)
(2.3262e-46 -3.42915e-46 0)
(1.54742e-45 -4.1438e-45 0)
(1.39808e-44 -2.7953e-44 0)
(1.09065e-44 -2.58149e-43 0)
(-3.63595e-44 -2.37466e-43 0)
(-2.10433e-43 1.58427e-43 0)
(-3.4905e-42 -1.16393e-42 0)
(-5.81768e-41 -2.76436e-41 0)
(-1.01883e-39 -4.65876e-40 0)
(-1.46123e-38 -8.42834e-39 0)
(-2.33906e-37 -1.23763e-37 0)
(-2.73152e-36 -2.1074e-36 0)
(-3.94689e-35 -2.65007e-35 0)
(-3.15381e-34 -4.3992e-34 0)
(-3.73942e-33 -4.37148e-33 0)
(-1.50701e-35 -5.85401e-32 0)
(3.59257e-33 -3.89997e-33 0)
(-1.1441e-36 -2.92345e-37 0)
(-1.91383e-35 -2.78088e-36 0)
(-1.16771e-34 -4.29377e-35 0)
(-2.34822e-33 -3.79338e-35 0)
(-2.24958e-33 8.39768e-35 0)
(2.24958e-33 8.39768e-35 0)
(2.34822e-33 -3.79338e-35 0)
(1.16771e-34 -4.29376e-35 0)
(1.91421e-35 -2.78147e-36 0)
(1.11449e-36 -3.04439e-37 0)
(1.12697e-37 -1.78896e-38 0)
(6.4865e-39 -1.40806e-39 0)
(-5.06557e-45 -1.54761e-40 0)
(-6.48659e-39 -1.40808e-39 0)
(-1.12699e-37 -1.78899e-38 0)
(-1.11452e-36 -3.04444e-37 0)
(-1.91426e-35 -2.78155e-36 0)
(-1.16778e-34 -4.29391e-35 0)
(-2.34833e-33 -3.79518e-35 0)
(-2.2507e-33 8.36709e-35 0)
(2.23032e-33 8.11773e-35 0)
(2.23032e-33 -8.11773e-35 0)
(-2.2507e-33 -8.36709e-35 0)
(-2.34833e-33 3.79518e-35 0)
(-1.16778e-34 4.29391e-35 0)
(-1.91426e-35 2.78155e-36 0)
(-1.11455e-36 3.04439e-37 0)
(-1.13205e-37 1.7812e-38 0)
(-1.3054e-38 -4.74931e-42 0)
(-1.13679e-37 -1.78846e-38 0)
(-1.12056e-36 -3.05764e-37 0)
(-1.92488e-35 -2.79803e-36 0)
(-1.17779e-34 -4.32255e-35 0)
(-2.36635e-33 -4.04274e-35 0)
(-2.34822e-33 4.35327e-35 0)
(-2.05678e-41 8.6487e-35 0)
(2.34822e-33 4.35327e-35 0)
(2.36635e-33 -4.04285e-35 0)
(1.17671e-34 -4.32274e-35 0)
(1.86696e-35 -2.61622e-36 0)
(-1.56991e-37 1.37054e-37 0)
(-2.34736e-36 1.41836e-36 0)
(-1.53659e-35 2.19277e-35 0)
(-2.16084e-34 1.93687e-35 0)
(-2.02924e-34 -4.28764e-35 0)
(2.02924e-34 -4.28764e-35 0)
(2.16084e-34 1.93687e-35 0)
(1.5366e-35 2.19277e-35 0)
(2.34804e-36 1.41884e-36 0)
(1.56196e-37 1.51627e-37 0)
(1.54526e-38 8.8149e-39 0)
(9.52542e-40 6.82904e-40 0)
(-7.98286e-46 7.43481e-41 0)
(-9.52556e-40 6.82911e-40 0)
(-1.54528e-38 8.81502e-39 0)
(-1.562e-37 1.5163e-37 0)
(-2.34811e-36 1.41888e-36 0)
(-1.53669e-35 2.19284e-35 0)
(-2.16099e-34 1.93776e-35 0)
(-2.03081e-34 -4.27241e-35 0)
(2.00561e-34 -4.14487e-35 0)
(2.00561e-34 4.14487e-35 0)
(-2.03081e-34 4.27241e-35 0)
(-2.16099e-34 -1.93776e-35 0)
(-1.53669e-35 -2.19284e-35 0)
(-2.34811e-36 -1.41888e-36 0)
(-1.56204e-37 -1.51627e-37 0)
(-1.55268e-38 -8.77761e-39 0)
(-1.91743e-39 2.25984e-42 0)
(-1.55957e-38 8.81251e-39 0)
(-1.57088e-37 1.52271e-37 0)
(-2.3626e-36 1.42701e-36 0)
(-1.55076e-35 2.20711e-35 0)
(-2.1829e-34 2.06441e-35 0)
(-2.16084e-34 -2.22241e-35 0)
(-3.63316e-42 -4.416e-35 0)
(2.16084e-34 -2.22241e-35 0)
(2.18289e-34 2.06445e-35 0)
(1.54907e-35 2.20673e-35 0)
(2.25507e-36 1.15506e-36 0)
(-2.72052e-38 1.86008e-38 0)
(-3.43728e-37 1.95258e-37 0)
(-1.29723e-36 2.5256e-36 0)
(-1.35087e-35 2.17285e-36 0)
(-1.25323e-35 -4.91593e-36 0)
(1.25323e-35 -4.91593e-36 0)
(1.35087e-35 2.17285e-36 0)
(1.29722e-36 2.5256e-36 0)
(3.43738e-37 1.9532e-37 0)
(2.56319e-38 2.07567e-38 0)
(2.95156e-39 1.30087e-39 0)
(1.91553e-40 1.00439e-40 0)
(-1.85568e-46 1.14263e-41 0)
(-1.91556e-40 1.0044e-40 0)
(-2.95162e-39 1.30089e-39 0)
(-2.56328e-38 2.07571e-38 0)
(-3.43754e-37 1.95325e-37 0)
(-1.29741e-36 2.5257e-36 0)
(-1.35116e-35 2.17416e-36 0)
(-1.25581e-35 -4.89507e-36 0)
(1.21856e-35 -4.71931e-36 0)
(1.21856e-35 4.71931e-36 0)
(-1.25581e-35 4.89507e-36 0)
(-1.35116e-35 -2.17416e-36 0)
(-1.29741e-36 -2.5257e-36 0)
(-3.43754e-37 -1.95325e-37 0)
(-2.56337e-38 -2.07567e-38 0)
(-2.96745e-39 -1.29514e-39 0)
(-3.85815e-40 3.4723e-43 0)
(-2.98218e-39 1.3005e-39 0)
(-2.58104e-38 2.08511e-38 0)
(-3.46512e-37 1.96526e-37 0)
(-1.32008e-36 2.54515e-36 0)
(-1.38295e-35 2.34862e-36 0)
(-1.35087e-35 -2.5661e-36 0)
(-2.73229e-43 -5.09291e-36 0)
(1.35087e-35 -2.5661e-36 0)
(1.38295e-35 2.34869e-36 0)
(1.31958e-36 2.54466e-36 0)
(3.44511e-37 1.59003e-37 0)
(-2.81903e-39 3.61903e-39 0)
(-3.1603e-38 3.37731e-38 0)
(-8.13211e-38 4.17612e-37 0)
(-6.41632e-37 3.57383e-37 0)
(-5.89601e-37 -8.1312e-37 0)
(5.89601e-37 -8.1312e-37 0)
(6.41632e-37 3.57383e-37 0)
(8.132e-38 4.17612e-37 0)
(3.15994e-38 3.37915e-38 0)
(2.60838e-39 4.04453e-39 0)
(3.18483e-40 2.65297e-40 0)
(2.1749e-41 2.17605e-41 0)
(-2.3125e-47 2.54184e-42 0)
(-2.17494e-41 2.17608e-41 0)
(-3.18491e-40 2.65301e-40 0)
(-2.60849e-39 4.04461e-39 0)
(-3.16012e-38 3.37928e-38 0)
(-8.1342e-38 4.17634e-37 0)
(-6.41952e-37 3.57649e-37 0)
(-5.92231e-37 -8.09053e-37 0)
(5.57681e-37 -7.79061e-37 0)
(5.57681e-37 7.79061e-37 0)
(-5.92231e-37 8.09053e-37 0)
(-6.41952e-37 -3.57649e-37 0)
(-8.1342e-38 -4.17634e-37 0)
(-3.16012e-38 -3.37928e-38 0)
(-2.6086e-39 -4.04453e-39 0)
(-3.2033e-40 -2.64021e-40 0)
(-4.38224e-41 7.94965e-44 0)
(-3.22037e-40 2.65212e-40 0)
(-2.62863e-39 4.06493e-39 0)
(-3.18977e-38 3.40363e-38 0)
(-8.36301e-38 4.21412e-37 0)
(-6.70921e-37 3.87375e-37 0)
(-6.41632e-37 -4.25499e-37 0)
(-1.21622e-44 -8.43357e-37 0)
(6.41632e-37 -4.25499e-37 0)
(6.70925e-37 3.87377e-37 0)
(8.36799e-38 4.21243e-37 0)
(3.23106e-38 2.70291e-38 0)
(-3.20281e-40 3.90977e-40 0)
(-3.29003e-39 3.5165e-39 0)
(-5.04338e-39 4.04801e-38 0)
(-2.08722e-38 3.42373e-38 0)
(-1.88657e-38 -7.87085e-38 0)
(1.88657e-38 -7.87085e-38 0)
(2.08722e-38 3.42373e-38 0)
(5.0432e-39 4.04801e-38 0)
(3.28881e-39 3.51881e-39 0)
(2.87253e-40 4.39292e-40 0)
(3.76304e-41 3.02482e-41 0)
(2.64218e-42 2.53527e-42 0)
(-3.02215e-48 3.05299e-43 0)
(-2.64224e-42 2.5353e-42 0)
(-3.76313e-41 3.02487e-41 0)
(-2.87267e-40 4.39302e-40 0)
(-3.28904e-39 3.51896e-39 0)
(-5.04587e-39 4.04827e-38 0)
(-2.091e-38 3.42677e-38 0)
(-1.91556e-38 -7.82667e-38 0)
(1.5539e-38 -7.51593e-38 0)
(1.5539e-38 7.51593e-38 0)
(-1.91556e-38 7.82667e-38 0)
(-2.091e-38 -3.42677e-38 0)
(-5.04587e-39 -4.04827e-38 0)
(-3.28904e-39 -3.51896e-39 0)
(-2.87281e-40 -4.39292e-40 0)
(-3.78613e-41 -3.0095e-41 0)
(-5.32557e-42 9.65309e-45 0)
(-3.80745e-41 3.02379e-41 0)
(-2.89709e-40 4.41663e-40 0)
(-3.324e-39 3.54668e-39 0)
(-5.29527e-39 4.08915e-38 0)
(-2.39089e-38 3.73447e-38 0)
(-2.08722e-38 -4.13358e-38 0)
(2.37725e-45 -8.18439e-38 0)
(2.08722e-38 -4.13358e-38 0)
(2.39102e-38 3.73446e-38 0)
(5.31566e-39 4.08693e-38 0)
(3.45548e-39 2.78761e-39 0)
(-2.9199e-41 4.64239e-41 0)
(-2.80464e-40 3.95327e-40 0)
(-3.06139e-40 4.43556e-39 0)
(-2.57349e-40 3.73852e-39 0)
(-2.09007e-40 -8.62603e-39 0)
(2.09007e-40 -8.62603e-39 0)
(2.57349e-40 3.73853e-39 0)
(3.0612e-40 4.43558e-39 0)
(2.80307e-40 3.95665e-40 0)
(2.57945e-41 5.22361e-41 0)
(3.49969e-42 3.68989e-42 0)
(2.53239e-43 3.17979e-43 0)
(-3.07735e-49 3.88939e-44 0)
(-2.53245e-43 3.17983e-43 0)
(-3.49978e-42 3.68997e-42 0)
(-2.57959e-41 5.22375e-41 0)
(-2.80329e-40 3.95685e-40 0)
(-3.06376e-40 4.43589e-39 0)
(-2.60871e-40 3.74223e-39 0)
(-2.35058e-40 -8.57348e-39 0)
(-7.48218e-41 -8.22666e-39 0)
(-7.48218e-41 8.22666e-39 0)
(-2.35058e-40 8.57348e-39 0)
(-2.60871e-40 -3.74223e-39 0)
(-3.06376e-40 -4.43589e-39 0)
(-2.80329e-40 -3.95685e-40 0)
(-2.57973e-41 -5.22361e-41 0)
(-3.52218e-42 -3.67038e-42 0)
(-5.10567e-43 1.24585e-45 0)
(-3.5429e-42 3.68857e-42 0)
(-2.60296e-41 5.25333e-41 0)
(-2.83573e-40 3.99057e-40 0)
(-3.28648e-40 4.48442e-39 0)
(-5.15127e-40 4.08535e-39 0)
(-2.57349e-40 -4.53727e-39 0)
(4.51853e-46 -8.97626e-39 0)
(2.57358e-40 -4.53728e-39 0)
(5.15297e-40 4.08524e-39 0)
(3.3121e-40 4.48117e-39 0)
(2.99209e-40 3.09395e-40 0)
(-2.56634e-42 4.70939e-42 0)
(-2.51006e-41 3.56953e-41 0)
(-2.18687e-41 3.86634e-40 0)
(4.05665e-41 3.23688e-40 0)
(3.9444e-41 -7.51457e-40 0)
(-3.9444e-41 -7.51457e-40 0)
(-4.05661e-41 3.23689e-40 0)
(2.18733e-41 3.86647e-40 0)
(2.50502e-41 3.58621e-41 0)
(2.36293e-42 4.8719e-42 0)
(3.30488e-43 3.54366e-43 0)
(2.43058e-44 3.1005e-44 0)
(-3.072e-50 3.86544e-45 0)
(-2.43063e-44 3.10054e-44 0)
(-3.30498e-43 3.54373e-43 0)
(-2.36307e-42 4.87203e-42 0)
(-2.50523e-41 3.58641e-41 0)
(-2.18978e-41 3.86678e-40 0)
(4.02334e-41 3.24045e-40 0)
(3.70565e-41 -7.46554e-40 0)
(-6.48268e-41 -7.15239e-40 0)
(-6.48268e-41 7.15239e-40 0)
(3.70565e-41 7.46554e-40 0)
(4.02334e-41 -3.24045e-40 0)
(-2.18978e-41 -3.86678e-40 0)
(-2.50524e-41 -3.58641e-41 0)
(-2.36321e-42 -4.8719e-42 0)
(-3.32677e-43 -3.52426e-43 0)
(-4.90136e-44 1.24765e-46 0)
(-3.34693e-43 3.54234e-43 0)
(-2.38548e-42 4.90083e-42 0)
(-2.53583e-41 3.61874e-41 0)
(-2.39281e-41 3.91194e-40 0)
(1.75707e-41 3.55004e-40 0)
(4.05661e-41 -3.96126e-40 0)
(6.68107e-47 -7.831e-40 0)
(-4.05648e-41 -3.96126e-40 0)
(-1.75505e-41 3.5499e-40 0)
(2.42266e-41 3.90853e-40 0)
(2.71202e-41 2.78418e-41 0)
(3.80914e-42 1.22739e-41 0)
(-1.97747e-42 1.20096e-42 0)
(-1.45443e-42 3.48081e-41 0)
(4.95594e-42 2.91912e-41 0)
(4.69794e-42 -6.79895e-41 0)
(-4.69718e-42 -6.79888e-41 0)
(-4.94742e-42 2.92049e-41 0)
(1.56131e-42 3.49826e-41 0)
(1.9778e-42 3.30295e-42 0)
(1.91678e-43 4.61026e-43 0)
(2.72685e-44 3.40691e-44 0)
(2.04258e-45 3.02213e-45 0)
(-2.67363e-51 3.8061e-46 0)
(-2.04263e-45 3.02217e-45 0)
(-2.72693e-44 3.40698e-44 0)
(-1.91689e-43 4.6104e-43 0)
(-1.97798e-42 3.30315e-42 0)
(-1.56338e-42 3.49856e-41 0)
(4.91997e-42 2.92391e-41 0)
(4.50348e-42 -6.75247e-41 0)
(-6.70247e-42 -6.46515e-41 0)
(-6.70247e-42 6.46515e-41 0)
(4.50348e-42 6.75247e-41 0)
(4.91997e-42 -2.92391e-41 0)
(-1.56338e-42 -3.49856e-41 0)
(-1.97798e-42 -3.30314e-42 0)
(-1.91701e-43 -4.61026e-43 0)
(-2.74541e-44 -3.38781e-44 0)
(-4.11965e-45 1.23618e-47 0)
(-2.76248e-44 3.40559e-44 0)
(-1.93571e-43 4.63844e-43 0)
(-2.00319e-42 3.33419e-42 0)
(-1.7276e-42 3.54124e-41 0)
(3.13591e-42 3.2078e-41 0)
(4.94742e-42 -3.58793e-41 0)
(7.04372e-48 -7.08933e-41 0)
(-4.94729e-42 -3.58794e-41 0)
(-3.134e-42 3.20761e-41 0)
(1.75504e-42 3.53767e-41 0)
(2.16228e-42 2.54595e-42 0)
(1.53553e-40 1.50229e-41 0)
(1.97594e-42 -2.37841e-41 0)
(1.75865e-42 7.91222e-43 0)
(5.76176e-43 2.18125e-42 0)
(4.27618e-43 -5.40049e-42 0)
(-4.17054e-43 -5.39393e-42 0)
(-4.4239e-43 2.30739e-42 0)
(1.18229e-43 2.77634e-42 0)
(1.56325e-43 2.68605e-43 0)
(1.5369e-44 3.8084e-44 0)
(2.21648e-45 2.86616e-45 0)
(1.67805e-46 2.56418e-46 0)
(-2.23888e-52 3.26852e-47 0)
(-1.67809e-46 2.56421e-46 0)
(-2.21655e-45 2.86623e-45 0)
(-1.53699e-44 3.80851e-44 0)
(-1.5634e-43 2.68621e-43 0)
(-1.18397e-43 2.7766e-42 0)
(4.4019e-43 2.31029e-42 0)
(4.02092e-43 -5.35524e-42 0)
(-5.76188e-43 -5.12209e-42 0)
(-5.76188e-43 5.12209e-42 0)
(4.02092e-43 5.35524e-42 0)
(4.4019e-43 -2.31029e-42 0)
(-1.18397e-43 -2.7766e-42 0)
(-1.56341e-43 -2.68621e-43 0)
(-1.53709e-44 -3.8084e-44 0)
(-2.23183e-45 -2.84976e-45 0)
(-3.38481e-46 1.06582e-48 0)
(-2.24594e-45 2.86503e-45 0)
(-1.55245e-44 3.83228e-44 0)
(-1.58387e-43 2.71231e-43 0)
(-1.31534e-43 2.8118e-42 0)
(2.99403e-43 2.54056e-42 0)
(4.42421e-43 -2.85038e-42 0)
(6.90839e-49 -5.62937e-42 0)
(-4.42409e-43 -2.85039e-42 0)
(-2.99231e-43 2.54037e-42 0)
(1.33966e-43 2.80863e-42 0)
(1.72362e-43 2.0622e-43 0)
(4.86158e-39 2.77597e-39 0)
(3.35034e-40 -3.44553e-40 0)
(2.6699e-41 -2.83173e-41 0)
(1.65004e-42 -1.3147e-42 0)
(1.25624e-43 -5.03294e-43 0)
(-2.61787e-44 -4.29481e-43 0)
(-3.29154e-44 1.8166e-43 0)
(8.39947e-45 2.19289e-43 0)
(1.1301e-44 2.14995e-44 0)
(1.13035e-45 3.08618e-45 0)
(1.64337e-46 2.34708e-46 0)
(1.25933e-47 2.11235e-47 0)
(-1.55811e-53 2.71033e-48 0)
(-1.25935e-47 2.11238e-47 0)
(-1.64341e-46 2.34714e-46 0)
(-1.1304e-45 3.08629e-45 0)
(-1.13016e-44 2.15011e-44 0)
(-8.40002e-45 2.19317e-43 0)
(3.30033e-44 1.82058e-43 0)
(3.00901e-44 -4.22854e-43 0)
(-4.26991e-44 -4.04225e-43 0)
(-4.26991e-44 4.04225e-43 0)
(3.00901e-44 4.22854e-43 0)
(3.30033e-44 -1.82058e-43 0)
(-8.40002e-45 -2.19317e-43 0)
(-1.13016e-44 -2.15011e-44 0)
(-1.13047e-45 -3.08619e-45 0)
(-1.65493e-46 -2.33349e-46 0)
(-2.54046e-47 8.8561e-50 0)
(-1.66555e-46 2.34615e-46 0)
(-1.14199e-45 3.10586e-45 0)
(-1.14532e-44 2.17147e-44 0)
(-9.36486e-45 2.22167e-43 0)
(2.28459e-44 2.00451e-43 0)
(3.31688e-44 -2.25294e-43 0)
(5.85147e-50 -4.44806e-43 0)
(-3.31678e-44 -2.25295e-43 0)
(-2.28321e-44 2.00433e-43 0)
(9.5551e-45 2.21894e-43 0)
(1.2542e-44 1.64535e-44 0)
(5.20729e-35 -4.39031e-34 0)
(1.44013e-34 -6.77007e-35 0)
(1.66539e-35 -4.57988e-35 0)
(5.91668e-36 -3.91929e-36 0)
(4.99622e-37 -4.4878e-37 0)
(6.25758e-38 -3.1154e-38 0)
(4.50463e-39 -2.56196e-39 0)
(3.90895e-40 -1.59928e-40 0)
(2.4968e-41 -1.09171e-41 0)
(1.74527e-42 -6.45949e-43 0)
(9.74017e-44 -2.35422e-44 0)
(7.3749e-45 3.47311e-44 0)
(3.64486e-45 -1.08993e-44 0)
(-1.17153e-45 -2.41534e-44 0)
(-2.04821e-45 1.10408e-44 0)
(5.23478e-46 1.33725e-44 0)
(7.21074e-46 1.47746e-45 0)
(8.06499e-47 2.23855e-46 0)
(1.22207e-47 1.8812e-47 0)
(1.03159e-48 1.78264e-48 0)
(9.73733e-50 1.25307e-49 0)
(6.8481e-51 9.18969e-51 0)
(4.99774e-52 5.62548e-52 0)
(3.24083e-53 3.27646e-53 0)
(3.2469e-53 -3.28662e-53 0)
(5.00689e-52 -5.64331e-52 0)
(6.85463e-51 -9.22227e-51 0)
(9.72782e-50 -1.2583e-49 0)
(1.02425e-48 -1.79114e-48 0)
(1.19832e-47 -1.89252e-47 0)
(7.41896e-47 -2.25446e-46 0)
(5.66337e-46 -1.49301e-45 0)
(-2.85238e-45 -1.35455e-44 0)
(-7.35346e-44 -1.16426e-44 0)
(-1.36315e-42 2.52938e-44 0)
(-2.65252e-41 2.53388e-43 0)
(-4.47372e-40 4.35966e-42 0)
(-8.08946e-39 6.83002e-41 0)
(-1.18452e-37 9.42754e-40 0)
(-1.99041e-36 2.74638e-39 0)
(-2.40029e-35 -4.16403e-37 0)
(-3.75649e-34 -2.34279e-35 0)
(-3.17726e-33 -7.93145e-34 0)
(-4.40717e-32 -1.89105e-32 0)
(1.08098e-34 -2.57504e-31 0)
(4.41578e-32 -1.89564e-32 0)
(2.86322e-33 -3.09173e-33 0)
(4.41327e-33 -8.582e-34 0)
(3.59496e-34 -7.20628e-34 0)
(6.25376e-35 -5.39929e-35 0)
(4.69307e-36 -6.08421e-36 0)
(5.02664e-37 -3.97041e-37 0)
(3.44339e-38 -3.23084e-38 0)
(2.81782e-39 -1.94483e-39 0)
(1.75758e-40 -1.31463e-40 0)
(1.19775e-41 -7.31667e-42 0)
(6.82723e-43 -4.3043e-43 0)
(4.05843e-44 -2.0447e-44 0)
(2.26103e-45 -1.68834e-45 0)
(6.37962e-47 -1.21353e-45 0)
(-7.89741e-47 5.26092e-46 0)
(2.16757e-47 6.41401e-46 0)
(2.96555e-47 7.14132e-47 0)
(3.35498e-48 1.08111e-47 0)
(5.1285e-49 9.12094e-49 0)
(4.36882e-50 8.61841e-50 0)
(4.14499e-51 6.06319e-51 0)
(2.93324e-52 4.42869e-52 0)
(2.1463e-53 2.70726e-53 0)
(1.39736e-54 1.56963e-54 0)
(1.40954e-54 -1.57051e-54 0)
(2.17683e-53 -2.70529e-53 0)
(3.00467e-52 -4.41606e-52 0)
(4.31405e-51 -6.01529e-51 0)
(4.75539e-50 -8.4742e-50 0)
(6.01668e-49 -8.72709e-49 0)
(5.30054e-48 -9.82065e-48 0)
(7.22106e-47 -4.81255e-47 0)
(8.94705e-46 -1.1492e-46 0)
(1.78091e-44 1.05522e-44 0)
(3.36457e-43 2.31305e-43 0)
(6.38902e-42 4.3605e-42 0)
(1.07726e-40 8.32447e-41 0)
(1.88259e-39 1.37594e-39 0)
(2.76494e-38 2.23067e-38 0)
(4.4314e-37 2.08133e-37 0)
(5.38705e-36 -2.00903e-36 0)
(7.8664e-35 -2.66572e-34 0)
(6.78532e-34 -1.07141e-32 0)
(8.38026e-33 -3.10336e-31 0)
(4.10316e-33 -5.997e-30 0)
(-3.94159e-33 -3.1143e-31 0)
(8.60119e-32 -5.22443e-32 0)
(9.43952e-32 -2.82513e-33 0)
(5.61891e-33 -1.02526e-34 0)
(9.72276e-34 -2.81285e-36 0)
(6.49879e-35 -4.54825e-38 0)
(6.90345e-36 2.23506e-40 0)
(4.45844e-37 9.69584e-41 0)
(3.6183e-38 6.40645e-42 0)
(2.17829e-39 4.06459e-43 0)
(1.47337e-40 2.10013e-44 0)
(8.20399e-42 1.15674e-45 0)
(4.83689e-43 1.27622e-46 0)
(2.49324e-44 -1.90146e-47 0)
(1.31332e-45 -4.83881e-47 0)
(5.93153e-47 2.21421e-47 0)
(3.94348e-48 2.69163e-47 0)
(1.40987e-48 3.03222e-48 0)
(1.51034e-49 4.61903e-49 0)
(2.23969e-50 3.93061e-50 0)
(1.90211e-51 3.72669e-51 0)
(1.79411e-52 2.63632e-52 0)
(1.26879e-53 1.92831e-53 0)
(9.24586e-55 1.18236e-54 0)
(6.31599e-56 6.85278e-56 0)
(1.45505e-55 -6.90041e-56 0)
(3.2173e-54 -1.19317e-54 0)
(7.19539e-53 -1.95427e-53 0)
(1.67714e-51 -2.69697e-52 0)
(3.81458e-50 -3.87105e-51 0)
(8.8194e-49 -4.26126e-50 0)
(1.95008e-47 -5.38664e-49 0)
(4.30301e-46 -4.71919e-48 0)
(8.91093e-45 -6.43463e-47 0)
(1.83754e-43 -7.92272e-46 0)
(3.48033e-42 -1.60112e-44 0)
(6.64741e-41 -3.01606e-43 0)
(1.12914e-39 -5.79819e-42 0)
(1.98894e-38 -9.31903e-41 0)
(2.95153e-37 -1.41572e-39 0)
(4.78344e-36 -5.42278e-39 0)
(5.90925e-35 5.75164e-37 0)
(8.78333e-34 3.70362e-35 0)
(7.82733e-33 1.3733e-33 0)
(1.00301e-31 3.82025e-32 0)
(9.51107e-32 7.2003e-31 0)
(3.90185e-34 3.81658e-32 0)
(4.30876e-33 -5.16282e-32 0)
(3.68187e-33 -2.15297e-33 0)
(3.12254e-34 6.08236e-34 0)
(5.62315e-35 5.07917e-35 0)
(4.30636e-36 6.01937e-36 0)
(4.68932e-37 3.9636e-37 0)
(3.24622e-38 3.23486e-38 0)
(2.67944e-39 1.94823e-39 0)
(1.68164e-40 1.31689e-40 0)
(1.15199e-41 7.32738e-42 0)
(6.59436e-43 4.31711e-43 0)
(3.92764e-44 2.22383e-44 0)
(2.0646e-45 1.17191e-45 0)
(1.09788e-46 5.40053e-47 0)
(5.19327e-48 3.65106e-48 0)
(2.94278e-49 1.28417e-48 0)
(6.17689e-50 1.37174e-49 0)
(6.27287e-51 2.02612e-50 0)
(9.0174e-52 1.71864e-51 0)