/*--------------------------------*- C++ -*----------------------------------*\
| =========                 |                                                 |
| \\      /  F ield         | OpenFOAM: The Open Source CFD Toolbox           |
|  \\    /   O peration     | Version:  2.4.0                                 |
|   \\  /    A nd           | Web:      www.OpenFOAM.org                      |
|    \\/     M anipulation  |                                                 |
\*---------------------------------------------------------------------------*/
FoamFile
{
    version     2.0;
    format      ascii;
    class       volVectorField;
    location    "0.6";
    object      U;
}
// * * * * * * * * * * * * * * * * * * * * * * * * * * * * * * * * * * * * * //

dimensions      [0 1 -1 0 0 0 0];

internalField   nonuniform List<vector> 
1600
(
(6.04675e-05 -6.05858e-05 0)
(0.00015589 -5.71819e-05 0)
(0.000156928 -7.06497e-06 0)
(6.65225e-06 5.24293e-05 0)
(-0.000303338 0.000107965 0)
(-0.000756637 0.000154829 0)
(-0.00132877 0.00019166 0)
(-0.00199277 0.000218503 0)
(-0.00272139 0.00023593 0)
(-0.00348836 0.000244691 0)
(-0.00426892 0.000245576 0)
(-0.00504021 0.00023937 0)
(-0.00578136 0.000226835 0)
(-0.00647361 0.000208703 0)
(-0.00710032 0.000185685 0)
(-0.007647 0.000158473 0)
(-0.00810131 0.000127747 0)
(-0.00845312 9.41874e-05 0)
(-0.0086945 5.84846e-05 0)
(-0.0088198 2.13463e-05 0)
(-0.00882574 -1.64931e-05 0)
(-0.00871147 -5.42666e-05 0)
(-0.00847866 -9.11713e-05 0)
(-0.00813162 -0.000126368 0)
(-0.00767738 -0.000158985 0)
(-0.00712569 -0.000188124 0)
(-0.00648914 -0.000212872 0)
(-0.00578308 -0.000232314 0)
(-0.00502554 -0.000245553 0)
(-0.00423712 -0.00025172 0)
(-0.00344076 -0.000250002 0)
(-0.00266141 -0.00023966 0)
(-0.00192557 -0.000220057 0)
(-0.00126075 -0.000190713 0)
(-0.000694542 -0.000151428 0)
(-0.000253174 -0.000102622 0)
(4.084e-05 -4.6181e-05 0)
(0.000174369 1.26619e-05 0)
(0.000160379 6.02077e-05 0)
(6.02719e-05 6.0036e-05 0)
(5.86472e-05 -0.000157091 0)
(7.24984e-05 -6.95709e-05 0)
(-0.000178509 0.000182306 0)
(-0.000772862 0.000476979 0)
(-0.00172507 0.000761111 0)
(-0.00300857 0.00100955 0)
(-0.00457479 0.00121097 0)
(-0.00636433 0.00136149 0)
(-0.0083134 0.001461 0)
(-0.0103578 0.00151141 0)
(-0.0124351 0.00151569 0)
(-0.0144865 0.0014774 0)
(-0.0164575 0.00140041 0)
(-0.0182985 0.00128878 0)
(-0.019965 0.00114664 0)
(-0.0214185 0.000978202 0)
(-0.0226256 0.000787714 0)
(-0.0235595 0.000579514 0)
(-0.0241987 0.000358038 0)
(-0.0245286 0.000127847 0)
(-0.0245405 -0.000106341 0)
(-0.0242326 -0.000339641 0)
(-0.02361 -0.000566991 0)
(-0.0226845 -0.000783171 0)
(-0.0214753 -0.000982831 0)
(-0.020009 -0.00116055 0)
(-0.0183191 -0.00131093 0)
(-0.0164464 -0.00142867 0)
(-0.0144383 -0.00150871 0)
(-0.0123486 -0.0015464 0)
(-0.0102364 -0.00153764 0)
(-0.00816488 -0.00147916 0)
(-0.00620031 -0.00136879 0)
(-0.00440942 -0.00120598 0)
(-0.00285663 -0.000992625 0)
(-0.00159969 -0.000734777 0)
(-0.000683055 -0.000445998 0)
(-0.000126874 -0.000153454 0)
(9.20303e-05 8.84132e-05 0)
(6.17581e-05 0.000160767 0)
(1.14483e-05 -0.000162894 0)
(-0.000171958 0.000178385 0)
(-0.000804177 0.000813981 0)
(-0.00193138 0.00153656 0)
(-0.00355446 0.0022391 0)
(-0.00563748 0.00286208 0)
(-0.0081156 0.00337391 0)
(-0.0109073 0.0037602 0)
(-0.0139231 0.00401678 0)
(-0.0170709 0.00414559 0)
(-0.02026 0.00415234 0)
(-0.0234034 0.004045 0)
(-0.02642 0.00383302 0)
(-0.0292351 0.00352671 0)
(-0.031782 0.00313699 0)
(-0.0340018 0.00267516 0)
(-0.0358443 0.00215287 0)
(-0.0372684 0.00158208 0)
(-0.0382419 0.000975074 0)
(-0.0387426 0.000344528 0)
(-0.0387576 -0.000296487 0)
(-0.0382846 -0.000934471 0)
(-0.0373315 -0.00155551 0)
(-0.0359168 -0.00214535 0)
(-0.0340699 -0.00268947 0)
(-0.0318311 -0.00317331 0)
(-0.0292515 -0.00358246 0)
(-0.0263923 -0.00390297 0)
(-0.0233248 -0.00412178 0)
(-0.0201289 -0.0042271 0)
(-0.0168921 -0.00420908 0)
(-0.0137072 -0.00406043 0)
(-0.0106701 -0.00377747 0)
(-0.00787635 -0.00336147 0)
(-0.00541639 -0.00282086 0)
(-0.00336973 -0.002175 0)
(-0.00179602 -0.00146054 0)
(-0.000723195 -0.000741264 0)
(-0.000138866 -0.00012644 0)
(1.76802e-05 0.000180115 0)
(-4.54155e-05 -2.2077e-05 0)
(-0.000464463 0.000768085 0)
(-0.00153569 0.00194171 0)
(-0.00324245 0.00322722 0)
(-0.00555564 0.00446895 0)
(-0.00842428 0.00557199 0)
(-0.0117674 0.00648131 0)
(-0.0154849 0.0071688 0)
(-0.0194672 0.00762382 0)
(-0.0236008 0.00784707 0)
(-0.0277727 0.00784667 0)
(-0.0318742 0.00763567 0)
(-0.0358028 0.00723031 0)
(-0.0394641 0.00664901 0)
(-0.042773 0.00591163 0)
(-0.0456545 0.00503912 0)
(-0.0480446 0.00405321 0)
(-0.0498906 0.0029764 0)
(-0.0511516 0.00183186 0)
(-0.051799 0.000643519 0)
(-0.0518168 -0.00056394 0)
(-0.0512021 -0.00176509 0)
(-0.0499653 -0.00293381 0)
(-0.0481303 -0.00404341 0)
(-0.045735 -0.00506689 0)
(-0.0428307 -0.00597723 0)
(-0.0394825 -0.00674791 0)
(-0.0357683 -0.00735349 0)
(-0.0317784 -0.00777035 0)
(-0.0276134 -0.00797759 0)
(-0.0233832 -0.0079582 0)
(-0.0192037 -0.00770038 0)
(-0.0151941 -0.00719943 0)
(-0.0114721 -0.00646013 0)
(-0.00814906 -0.00550038 0)
(-0.00532304 -0.00435665 0)
(-0.00306944 -0.00309249 0)
(-0.00143012 -0.00181016 0)
(-0.000420109 -0.000669637 0)
(-3.66889e-05 5.98454e-05 0)
(-0.000100504 0.000278598 0)
(-0.000761356 0.00172946 0)
(-0.00229032 0.00359265 0)
(-0.00459458 0.0055571 0)
(-0.00760464 0.00743008 0)
(-0.0112484 0.00908644 0)
(-0.0154263 0.0104492 0)
(-0.02002 0.0114763 0)
(-0.0249019 0.0121499 0)
(-0.0299407 0.0124688 0)
(-0.0350055 0.0124434 0)
(-0.0399697 0.0120921 0)
(-0.044714 0.011439 0)
(-0.0491281 0.0105116 0)
(-0.0531121 0.00934047 0)
(-0.0565782 0.00795796 0)
(-0.0594511 0.00639798 0)
(-0.0616688 0.00469574 0)
(-0.0631834 0.00288766 0)
(-0.0639612 0.00101137 0)
(-0.0639835 -0.000894378 0)
(-0.0632469 -0.00278966 0)
(-0.0617637 -0.00463358 0)
(-0.0595621 -0.00638444 0)
(-0.0566865 -0.0080002 0)
(-0.0531971 -0.00943895 0)
(-0.0491702 -0.0106597 0)
(-0.0446969 -0.0116235 0)
(-0.0398825 -0.0122942 0)
(-0.0348444 -0.0126404 0)
(-0.0297104 -0.0126369 0)
(-0.0246153 -0.0122671 0)
(-0.0196973 -0.0115255 0)
(-0.0150934 -0.010421 0)
(-0.0109337 -0.00898217 0)
(-0.0073348 -0.00726328 0)
(-0.00439089 -0.00535394 0)
(-0.00216407 -0.00339058 0)
(-0.000707372 -0.00157362 0)
(-8.96321e-05 -0.000214697 0)
(-0.000150758 0.000732748 0)
(-0.00104615 0.00306328 0)
(-0.00303037 0.00577411 0)
(-0.00593199 0.00853358 0)
(-0.00963592 0.0111235 0)
(-0.0140443 0.0133955 0)
(-0.0190356 0.0152545 0)
(-0.0244724 0.0166462 0)
(-0.0302095 0.0175463 0)
(-0.0360991 0.0179523 0)
(-0.0419949 0.0178773 0)
(-0.0477555 0.0173457 0)
(-0.0532475 0.01639 0)
(-0.0583476 0.0150482 0)
(-0.0629444 0.0133628 0)
(-0.0669395 0.011379 0)
(-0.0702488 0.00914463 0)
(-0.0728027 0.00670935 0)
(-0.0745477 0.0041247 0)
(-0.0754459 0.00144391 0)
(-0.0754763 -0.00127812 0)
(-0.074635 -0.00398499 0)
(-0.0729354 -0.00661894 0)
(-0.070409 -0.00912122 0)
(-0.067105 -0.0114327 0)
(-0.0630907 -0.0134945 0)
(-0.0584508 -0.0152493 0)
(-0.0532871 -0.0166426 0)
(-0.0477167 -0.0176245 0)
(-0.0418711 -0.0181514 0)
(-0.0358928 -0.0181892 0)
(-0.0299328 -0.0177153 0)
(-0.0241464 -0.016723 0)
(-0.0186883 -0.0152254 0)
(-0.0137075 -0.0132607 0)
(-0.0093411 -0.0109 0)
(-0.00570524 -0.00825562 0)
(-0.00288736 -0.0054924 0)
(-0.000983875 -0.00284091 0)
(-0.000137923 -0.000637848 0)
(-0.00019608 0.00133005 0)
(-0.00131449 0.00475812 0)
(-0.00374201 0.00847843 0)
(-0.00723145 0.012151 0)
(-0.0116205 0.015542 0)
(-0.0167825 0.0184869 0)
(-0.0225714 0.0208774 0)
(-0.0288287 0.0226503 0)
(-0.0353912 0.0237767 0)
(-0.0420954 0.0242542 0)
(-0.0487803 0.0240997 0)
(-0.0552917 0.0233446 0)
(-0.0614842 0.022031 0)
(-0.0672238 0.0202084 0)
(-0.0723896 0.0179323 0)
(-0.0768749 0.0152623 0)
(-0.0805882 0.0122612 0)
(-0.0834544 0.00899473 0)
(-0.0854148 0.00553092 0)
(-0.0864286 0.00194014 0)
(-0.0864725 -0.00170511 0)
(-0.0855418 -0.00533033 0)
(-0.0836507 -0.00885932 0)
(-0.0808326 -0.0122146 0)
(-0.0771403 -0.0153183 0)
(-0.0726461 -0.0180929 0)
(-0.0674414 -0.0204632 0)
(-0.061636 -0.0223575 0)
(-0.0553572 -0.0237102 0)
(-0.0487476 -0.0244645 0)
(-0.041963 -0.0245754 0)
(-0.035169 -0.0240138 0)
(-0.0285372 -0.0227701 0)
(-0.0222402 -0.02086 0)
(-0.0164468 -0.0183301 0)
(-0.0113167 -0.0152651 0)
(-0.00699147 -0.0117966 0)
(-0.00358711 -0.00811143 0)
(-0.00124545 -0.00446219 0)
(-0.000181439 -0.00119991 0)
(-0.000237397 0.00206077 0)
(-0.00156756 0.00679943 0)
(-0.00442416 0.0116922 0)
(-0.00848875 0.0163978 0)
(-0.0135522 0.0206744 0)
(-0.0194571 0.0243477 0)
(-0.0260312 0.0273014 0)
(-0.0330933 0.0294668 0)
(-0.0404615 0.0308139 0)
(-0.0479558 0.0313423 0)
(-0.0554016 0.0310745 0)
(-0.0626327 0.0300505 0)
(-0.0694932 0.0283229 0)
(-0.0758401 0.0259545 0)
(-0.0815445 0.0230146 0)
(-0.0864931 0.0195782 0)
(-0.0905886 0.0157246 0)
(-0.0937513 0.0115364 0)
(-0.0959189 0.0070993 0)
(-0.0970474 0.00250183 0)
(-0.0971119 -0.00216475 0)
(-0.0961065 -0.00680673 0)
(-0.0940454 -0.0113282 0)
(-0.090963 -0.0156319 0)
(-0.0869143 -0.0196196 0)
(-0.081975 -0.023194 0)
(-0.0762413 -0.0262601 0)
(-0.0698295 -0.0287277 0)
(-0.0628749 -0.0305139 0)
(-0.05553 -0.0315467 0)
(-0.0479625 -0.0317689 0)
(-0.040352 -0.0311422 0)
(-0.0328862 -0.0296528 0)
(-0.0257566 -0.0273166 0)
(-0.0191534 -0.0241856 0)
(-0.013261 -0.0203552 0)
(-0.00824886 -0.0159717 0)
(-0.00426408 -0.011239 0)
(-0.00149394 -0.00642575 0)
(-0.000221192 -0.001892 0)
(-0.000275848 0.00291714 0)
(-0.00180872 0.00917381 0)
(-0.00508174 0.0154018 0)
(-0.00970957 0.0212622 0)
(-0.0154373 0.0265102 0)
(-0.0220761 0.0309675 0)
(-0.0294259 0.0345142 0)
(-0.0372817 0.0370811 0)
(-0.0454416 0.0386399 0)
(-0.0537094 0.0391952 0)
(-0.0618967 0.0387775 0)
(-0.0698257 0.037437 0)
(-0.0773313 0.0352392 0)
(-0.0842626 0.0322605 0)
(-0.0904842 0.028586 0)
(-0.0958773 0.024307 0)
(-0.10034 0.01952 0)
(-0.10379 0.0143255 0)
(-0.106161 0.00882742 0)
(-0.107407 0.0031334 0)
(-0.1075 -0.00264589 0)
(-0.106435 -0.00839676 0)
(-0.104223 -0.0140029 0)
(-0.100901 -0.0193459 0)
(-0.0965229 -0.0243067 0)
(-0.0911671 -0.0287665 0)
(-0.0849329 -0.0326094 0)
(-0.0779414 -0.0357247 0)
(-0.0703345 -0.0380107 0)
(-0.0622735 -0.0393779 0)
(-0.0539371 -0.0397545 0)
(-0.0455186 -0.0390911 0)
(-0.0372225 -0.0373664 0)
(-0.0292599 -0.0345937 0)
(-0.0218443 -0.0308273 0)
(-0.0151871 -0.0261695 0)
(-0.00948765 -0.0207774 0)
(-0.00492567 -0.014868 0)
(-0.0017336 -0.00872214 0)
(-0.000258479 -0.00270759 0)
(-0.000312488 0.00389364 0)
(-0.00204184 0.011871 0)
(-0.00572205 0.0195961 0)
(-0.0109041 0.0267341 0)
(-0.0172883 0.0330407 0)
(-0.0246541 0.0383379 0)
(-0.0327726 0.0425074 0)
(-0.041414 0.045483 0)
(-0.0503558 0.0472422 0)
(-0.0593847 0.047798 0)
(-0.0682988 0.0471915 0)
(-0.0769094 0.0454857 0)
(-0.0850426 0.0427604 0)
(-0.0925408 0.0391079 0)
(-0.0992633 0.0346298 0)
(-0.105087 0.0294351 0)
(-0.109907 0.0236379 0)
(-0.113638 0.0173572 0)
(-0.116211 0.0107162 0)
(-0.117579 0.00384141 0)
(-0.117711 -0.00313646 0)
(-0.116601 -0.0100834 0)
(-0.114259 -0.016862 0)
(-0.11072 -0.0233325 0)
(-0.106038 -0.0293537 0)
(-0.100291 -0.0347844 0)
(-0.0935815 -0.0394863 0)
(-0.086033 -0.0433267 0)
(-0.0777927 -0.0461826 0)
(-0.0690296 -0.047945 0)
(-0.0599329 -0.0485247 0)
(-0.0507097 -0.0478577 0)
(-0.0415815 -0.0459123 0)
(-0.0327805 -0.0426955 0)
(-0.0245451 -0.0382602 0)
(-0.0171156 -0.0327118 0)
(-0.0107234 -0.0262147 0)
(-0.0055822 -0.0189957 0)
(-0.0019695 -0.0113464 0)
(-0.000294562 -0.00364296 0)
(-0.000348216 0.00498698 0)
(-0.00227071 0.0148843 0)
(-0.00635294 0.024268 0)
(-0.012084 0.0328069 0)
(-0.0191203 0.04026 0)
(-0.0272087 0.0464535 0)
(-0.0360911 0.0512746 0)
(-0.045512 0.0546647 0)
(-0.0552274 0.0566111 0)
(-0.0650069 0.0571388 0)
(-0.0746351 0.0563027 0)
(-0.0839125 0.0541813 0)
(-0.0926577 0.050871 0)
(-0.100707 0.0464816 0)
(-0.107916 0.0411327 0)
(-0.114158 0.0349517 0)
(-0.119327 0.0280714 0)
(-0.123334 0.0206296 0)
(-0.12611 0.0127684 0)
(-0.127605 0.00463397 0)
(-0.127789 -0.00362325 0)
(-0.12665 -0.0118488 0)
(-0.124198 -0.0198841 0)
(-0.120466 -0.0275677 0)
(-0.115505 -0.0347353 0)
(-0.109395 -0.0412228 0)
(-0.102235 -0.0468679 0)
(-0.0941513 -0.0515141 0)
(-0.0852957 -0.0550147 0)
(-0.0758432 -0.0572385 0)
(-0.065993 -0.0580753 0)
(-0.0559657 -0.0574433 0)
(-0.0460006 -0.0552963 0)
(-0.0363519 -0.0516309 0)
(-0.0272847 -0.0464943 0)
(-0.0190703 -0.0399913 0)
(-0.0119739 -0.0322902 0)
(-0.00624493 -0.0236255 0)
(-0.00220674 -0.0142988 0)
(-0.000330583 -0.00469727 0)
(-0.000383785 0.00619584 0)
(-0.00249876 0.0182111 0)
(-0.00698198 0.0294144 0)
(-0.0132612 0.0394776 0)
(-0.0209483 0.0481652 0)
(-0.0297576 0.0553108 0)
(-0.0394007 0.0608111 0)
(-0.0495955 0.0646195 0)
(-0.0600764 0.0667376 0)
(-0.0705955 0.0672061 0)
(-0.0809238 0.0660975 0)
(-0.0908523 0.0635088 0)
(-0.100192 0.0595554 0)
(-0.108776 0.0543665 0)
(-0.116455 0.0480814 0)
(-0.123103 0.0408466 0)
(-0.12861 0.0328141 0)
(-0.132889 0.0241408 0)
(-0.135869 0.0149877 0)
(-0.137498 0.00552027 0)
(-0.137744 -0.00409173 0)
(-0.136595 -0.0136736 0)
(-0.134056 -0.0230461 0)
(-0.130157 -0.0320255 0)
(-0.124947 -0.0404247 0)
(-0.118502 -0.0480553 0)
(-0.11092 -0.0547299 0)
(-0.102327 -0.0602661 0)
(-0.092877 -0.0644913 0)
(-0.0827501 -0.0672484 0)
(-0.0721544 -0.068403 0)
(-0.0613238 -0.067851 0)
(-0.0505158 -0.0655268 0)
(-0.0400077 -0.0614122 0)
(-0.0300928 -0.0555443 0)
(-0.0210755 -0.0480229 0)
(-0.0132573 -0.0390171 0)
(-0.00692512 -0.0287673 0)
(-0.00245022 -0.0175854 0)
(-0.000367557 -0.0058724 0)
(-0.000419819 0.00752064 0)
(-0.00272902 0.0218523 0)
(-0.00761612 0.0350362 0)
(-0.0144464 0.0467471 0)
(-0.0227866 0.0567564 0)
(-0.0323172 0.0649081 0)
(-0.0427185 0.0711129 0)
(-0.0536813 0.0753406 0)
(-0.0649177 0.0776114 0)
(-0.0761625 0.0779865 0)
(-0.0871736 0.0765599 0)
(-0.0977331 0.0734502 0)
(-0.107646 0.0687949 0)
(-0.116743 0.0627448 0)
(-0.124872 0.0554599 0)
(-0.131908 0.047107 0)
(-0.137741 0.0378579 0)
(-0.142284 0.0278882 0)
(-0.145466 0.0173776 0)
(-0.147236 0.00651 0)
(-0.147558 -0.00452605 0)
(-0.146418 -0.0155365 0)
(-0.143818 -0.0263217 0)
(-0.139783 -0.0366764 0)
(-0.134358 -0.0463904 0)
(-0.127613 -0.0552505 0)
(-0.119644 -0.0630429 0)
(-0.110573 -0.0695573 0)
(-0.100555 -0.0745924 0)
(-0.0897742 -0.0779618 0)
(-0.0784453 -0.0795024 0)
(-0.0668152 -0.0790828 0)
(-0.0551594 -0.0766132 0)
(-0.0437793 -0.0720548 0)
(-0.032998 -0.0654293 0)
(-0.0231551 -0.0568273 0)
(-0.0145913 -0.0464153 0)
(-0.00763361 -0.0344379 0)
(-0.00270452 -0.0212175 0)
(-0.000406396 -0.00717274 0)
(-0.000456851 0.00896331 0)
(-0.0029642 0.0258118 0)
(-0.00826168 0.0411383 0)
(-0.0156498 0.0546197 0)
(-0.0246482 0.066036 0)
(-0.0349018 0.0752451 0)
(-0.0460586 0.0821756 0)
(-0.0577815 0.0868189 0)
(-0.0697598 0.089219 0)
(-0.0817112 0.0894623 0)
(-0.0933816 0.0876684 0)
(-0.104545 0.0839819 0)
(-0.115003 0.0785651 0)
(-0.124582 0.0715924 0)
(-0.133134 0.0632467 0)
(-0.140534 0.0537156 0)
(-0.146674 0.0431907 0)
(-0.15147 0.0318663 0)
(-0.15485 0.0199398 0)
(-0.156765 0.00761257 0)
(-0.157176 -0.00490912 0)
(-0.156067 -0.0174132 0)
(-0.153436 -0.0296807 0)
(-0.149301 -0.0414855 0)
(-0.143702 -0.0525946 0)
(-0.136701 -0.0627698 0)
(-0.128388 -0.0717698 0)
(-0.118881 -0.0793546 0)
(-0.108332 -0.0852908 0)
(-0.0969254 -0.0893591 0)
(-0.0848832 -0.0913628 0)
(-0.072463 -0.0911378 0)
(-0.0599581 -0.0885637 0)
(-0.0476943 -0.0835748 0)
(-0.0360264 -0.0761716 0)
(-0.0253315 -0.0664304 0)
(-0.0159925 -0.054511 0)
(-0.00838068 -0.0406603 0)
(-0.00297397 -0.0252118 0)
(-0.000447935 -0.00860503 0)
(-0.000495356 0.0105271 0)
(-0.00320675 0.0300968 0)
(-0.00892443 0.0477292 0)
(-0.0168805 0.0631029 0)
(-0.0265443 0.0760085 0)
(-0.0375234 0.0863214 0)
(-0.0494318 0.0939931 0)
(-0.0619032 0.0990419 0)
(-0.074604 0.101541 0)
(-0.0872354 0.101608 0)
(-0.0995321 0.0993937 0)
(-0.111262 0.0950713 0)
(-0.122224 0.0888321 0)
(-0.132247 0.0808767 0)
(-0.141184 0.0714119 0)
(-0.148914 0.0606473 0)
(-0.155335 0.048794 0)
(-0.160364 0.0360645 0)
(-0.163934 0.0226729 0)
(-0.165995 0.00883639 0)
(-0.166509 -0.00522285 0)
(-0.165455 -0.0192763 0)
(-0.162827 -0.0330875 0)
(-0.158635 -0.0464106 0)
(-0.15291 -0.0589908 0)
(-0.145708 -0.0705648 0)
(-0.137106 -0.0808628 0)
(-0.127217 -0.0896134 0)
(-0.116186 -0.0965484 0)
(-0.104196 -0.101411 0)
(-0.0914716 -0.103966 0)
(-0.0782798 -0.104009 0)
(-0.0649309 -0.101383 0)
(-0.0517755 -0.0959879 0)
(-0.0392009 -0.0877957 0)
(-0.0276251 -0.0768621 0)
(-0.0174768 -0.063336 0)
(-0.0091761 -0.0474637 0)
(-0.00326267 -0.0295898 0)
(-0.000492968 -0.0101782 0)
(-0.000535786 0.0122165 0)
(-0.00345904 0.034717 0)
(-0.00960992 0.0548203 0)
(-0.0181469 0.0722065 0)
(-0.0284854 0.0866793 0)
(-0.0401922 0.0981357 0)
(-0.0528452 0.106556 0)
(-0.0660478 0.111991 0)
(-0.0794437 0.114551 0)
(-0.092718 0.11439 0)
(-0.105596 0.111695 0)
(-0.117841 0.106674 0)
(-0.129254 0.0995498 0)
(-0.139665 0.0905524 0)
(-0.148936 0.079914 0)
(-0.15695 0.0678666 0)
(-0.163614 0.0546407 0)
(-0.168848 0.0404658 0)
(-0.172593 0.0255711 0)
(-0.174798 0.0101877 0)
(-0.175426 -0.00544861 0)
(-0.174453 -0.0210954 0)
(-0.171865 -0.0365007 0)
(-0.167667 -0.0514014 0)
(-0.161878 -0.0655217 0)
(-0.154541 -0.078574 0)
(-0.145722 -0.09026 0)
(-0.135521 -0.100275 0)
(-0.124074 -0.108312 0)
(-0.111559 -0.114074 0)
(-0.098198 -0.11728 0)
(-0.0842662 -0.11768 0)
(-0.0700884 -0.115069 0)
(-0.0560395 -0.109306 0)
(-0.042541 -0.100326 0)
(-0.0300544 -0.0881558 0)
(-0.0190588 -0.0729271 0)
(-0.0100292 -0.0548827 0)
(-0.00357461 -0.0343778 0)
(-0.000542276 -0.0119032 0)
(-0.000578613 0.0140373 0)
(-0.00372351 0.039685 0)
(-0.0103238 0.0624263 0)
(-0.0194577 0.0819428 0)
(-0.0304811 0.0980541 0)
(-0.0429164 0.110685 0)
(-0.0563025 0.119849 0)
(-0.0702115 0.125641 0)
(-0.0842639 0.128212 0)
(-0.0981301 0.127761 0)
(-0.111528 0.124517 0)
(-0.124221 0.118729 0)
(-0.136012 0.110656 0)
(-0.14674 0.100559 0)
(-0.156275 0.0886967 0)
(-0.164512 0.0753247 0)
(-0.171365 0.0606922 0)
(-0.176767 0.045044 0)
(-0.180661 0.0286223 0)
(-0.183002 0.0116696 0)
(-0.183753 -0.00556784 0)
(-0.182887 -0.0228366 0)
(-0.180385 -0.0398725 0)
(-0.17624 -0.0563973 0)
(-0.170459 -0.0721171 0)
(-0.163069 -0.0867209 0)
(-0.154122 -0.099882 0)
(-0.1437 -0.111261 0)
(-0.131924 -0.120511 0)
(-0.118961 -0.127288 0)
(-0.105031 -0.131259 0)
(-0.0904079 -0.13212 0)
(-0.0754304 -0.129611 0)
(-0.0604962 -0.123537 0)
(-0.046062 -0.113786 0)
(-0.0326358 -0.100346 0)
(-0.0207527 -0.0833252 0)
(-0.0109494 -0.0629574 0)
(-0.00391385 -0.0396065 0)
(-0.000596665 -0.0137932 0)
(-0.000624376 0.0159964 0)
(-0.00400294 0.0450163 0)
(-0.0110724 0.0705648 0)
(-0.0208221 0.0923256 0)
(-0.0325414 0.110138 0)
(-0.0457034 0.123961 0)
(-0.0598049 0.133851 0)
(-0.0743846 0.139953 0)
(-0.0890406 0.14247 0)
(-0.10343 0.141654 0)
(-0.117267 0.137785 0)
(-0.130317 0.131157 0)
(-0.142392 0.122068 0)
(-0.153343 0.110815 0)
(-0.163052 0.0976854 0)
(-0.17143 0.0829565 0)
(-0.178404 0.0668957 0)
(-0.183919 0.0497614 0)
(-0.187927 0.0318062 0)
(-0.190389 0.0132804 0)
(-0.191269 -0.00556291 0)
(-0.190538 -0.0244632 0)
(-0.18817 -0.0431478 0)
(-0.184146 -0.0613273 0)
(-0.178459 -0.0786923 0)
(-0.171117 -0.094911 0)
(-0.16215 -0.109629 0)
(-0.151621 -0.122472 0)
(-0.139629 -0.133051 0)
(-0.126325 -0.140968 0)
(-0.111915 -0.145834 0)
(-0.0966732 -0.147281 0)
(-0.0809443 -0.144982 0)
(-0.0651475 -0.138677 0)
(-0.0497747 -0.128192 0)
(-0.0353838 -0.113467 0)
(-0.0225719 -0.0945745 0)
(-0.0119458 -0.0717325 0)
(-0.00428459 -0.0453112 0)
(-0.000657003 -0.0158635 0)
(-0.000673741 0.0181025 0)
(-0.00430069 0.0507296 0)
(-0.0118633 0.079257 0)
(-0.0222509 0.103371 0)
(-0.0346775 0.122936 0)
(-0.0485606 0.137952 0)
(-0.0633507 0.148531 0)
(-0.0785519 0.154876 0)
(-0.0937402 0.157257 0)
(-0.108563 0.155987 0)
(-0.122733 0.151404 0)
(-0.136024 0.143853 0)
(-0.148262 0.133681 0)
(-0.159314 0.121218 0)
(-0.169082 0.106783 0)
(-0.177496 0.0906764 0)
(-0.184503 0.073181 0)
(-0.190059 0.0545665 0)
(-0.194133 0.035092 0)
(-0.19669 0.0150119 0)
(-0.197701 -0.00541824 0)
(-0.197131 -0.0259358 0)
(-0.19495 -0.0462645 0)
(-0.191125 -0.0661082 0)
(-0.185632 -0.0851462 0)
(-0.178457 -0.103029 0)
(-0.169605 -0.119377 0)
(-0.15911 -0.133782 0)
(-0.147046 -0.145807 0)
(-0.133536 -0.155003 0)
(-0.11877 -0.160911 0)
(-0.10301 -0.163092 0)
(-0.086603 -0.161138 0)
(-0.0699859 -0.154709 0)
(-0.053685 -0.143555 0)
(-0.0383111 -0.127551 0)
(-0.0245297 -0.106721 0)
(-0.0130284 -0.0812572 0)
(-0.00469147 -0.0515321 0)
(-0.000724276 -0.0181315 0)
(-0.000727582 0.0203661 0)
(-0.0046211 0.0568478 0)
(-0.012706 0.088528 0)
(-0.0237574 0.115096 0)
(-0.0369027 0.136449 0)
(-0.0514957 0.152638 0)
(-0.0669361 0.163843 0)
(-0.0826918 0.170342 0)
(-0.0983182 0.172481 0)
(-0.113456 0.170647 0)
(-0.127823 0.165246 0)
(-0.141207 0.156685 0)
(-0.153454 0.145357 0)
(-0.164455 0.131635 0)
(-0.174139 0.115867 0)
(-0.182458 0.0983758 0)
(-0.189382 0.0794581 0)
(-0.194891 0.059391 0)
(-0.198964 0.0384365 0)
(-0.201581 0.0168482 0)
(-0.202716 -0.00512162 0)
(-0.202334 -0.0272136 0)
(-0.200396 -0.0491535 0)
(-0.196859 -0.0706445 0)
(-0.191675 -0.09136 0)
(-0.184808 -0.110938 0)
(-0.17623 -0.128976 0)
(-0.165943 -0.145031 0)
(-0.153984 -0.158625 0)
(-0.140443 -0.169244 0)
(-0.125481 -0.176361 0)
(-0.10934 -0.179449 0)
(-0.0923617 -0.178008 0)
(-0.074993 -0.171598 0)
(-0.0577933 -0.159874 0)
(-0.0414284 -0.142625 0)
(-0.0266401 -0.119811 0)
(-0.0142081 -0.0915853 0)
(-0.00513977 -0.0583141 0)
(-0.000799646 -0.0206175 0)
(-0.000787086 0.0228003 0)
(-0.00496999 0.0633991 0)
(-0.0136132 0.098408 0)
(-0.0253592 0.127521 0)
(-0.039234 0.150676 0)
(-0.0545184 0.16799 0)
(-0.0705554 0.179727 0)
(-0.0867756 0.186258 0)
(-0.102716 0.18802 0)
(-0.118017 0.185491 0)
(-0.132409 0.179154 0)
(-0.1457 0.169483 0)
(-0.157765 0.156927 0)
(-0.168527 0.141901 0)
(-0.177948 0.124785 0)
(-0.186011 0.105919 0)
(-0.192714 0.0856131 0)
(-0.198061 0.0641474 0)
(-0.202051 0.0417817 0)
(-0.204678 0.0187629 0)
(-0.205922 -0.00466576 0)
(-0.20575 -0.0282549 0)
(-0.204116 -0.0517394 0)
(-0.200961 -0.0748285 0)
(-0.196219 -0.0971963 0)
(-0.189821 -0.118474 0)
(-0.181707 -0.138241 0)
(-0.171836 -0.156028 0)
(-0.160201 -0.171307 0)
(-0.146848 -0.183505 0)
(-0.131896 -0.192015 0)
(-0.115557 -0.196212 0)
(-0.0981539 -0.195487 0)
(-0.080137 -0.18928 0)
(-0.0620933 -0.177128 0)
(-0.0447451 -0.158708 0)
(-0.0289176 -0.133891 0)
(-0.0154973 -0.102774 0)
(-0.00563584 -0.0657078 0)
(-0.000884549 -0.0233445 0)
(-0.000853903 0.0254218 0)
(-0.00535528 0.0704191 0)
(-0.0146019 0.108934 0)
(-0.0270795 0.140668 0)
(-0.0416936 0.16561 0)
(-0.0576401 0.183965 0)
(-0.0741996 0.196101 0)
(-0.0907652 0.202502 0)
(-0.106861 0.203721 0)
(-0.122131 0.200337 0)
(-0.13633 0.192927 0)
(-0.149298 0.182039 0)
(-0.160947 0.168182 0)
(-0.171242 0.151816 0)
(-0.180184 0.133349 0)
(-0.187795 0.113141 0)
(-0.194109 0.0915069 0)
(-0.199156 0.0687271 0)
(-0.202961 0.0450528 0)
(-0.205532 0.020718 0)
(-0.206861 -0.00405002 0)
(-0.206916 -0.0290194 0)
(-0.205646 -0.0539419 0)
(-0.202978 -0.0785407 0)
(-0.198823 -0.102499 0)
(-0.19308 -0.125448 0)
(-0.185648 -0.14696 0)
(-0.176438 -0.166537 0)
(-0.16539 -0.183612 0)
(-0.152495 -0.197548 0)
(-0.137815 -0.207652 0)
(-0.121515 -0.213192 0)
(-0.103886 -0.21343 0)
(-0.0853692 -0.207661 0)
(-0.0665708 -0.195274 0)
(-0.0482686 -0.175805 0)
(-0.031379 -0.149004 0)
(-0.0169111 -0.114887 0)
(-0.00618757 -0.0737705 0)
(-0.000980819 -0.0263396 0)
(-0.000930354 0.028252 0)
(-0.00578791 0.0779528 0)
(-0.0156953 0.120152 0)
(-0.028949 0.15456 0)
(-0.0443101 0.181239 0)
(-0.0608747 0.200502 0)
(-0.0778555 0.212853 0)
(-0.0946092 0.218918 0)
(-0.110653 0.219385 0)
(-0.12565 0.214958 0)
(-0.139386 0.206318 0)
(-0.151749 0.194097 0)
(-0.162698 0.178869 0)
(-0.172252 0.161136 0)
(-0.18046 0.141336 0)
(-0.18739 0.119842 0)
(-0.193115 0.0969722 0)
(-0.197699 0.0729979 0)
(-0.201194 0.0481565 0)
(-0.203628 0.022662 0)
(-0.205005 -0.00328212 0)
(-0.205299 -0.0294694 0)
(-0.204453 -0.0556769 0)
(-0.202381 -0.0816512 0)
(-0.19897 -0.107094 0)
(-0.194086 -0.131647 0)
(-0.187585 -0.154882 0)
(-0.179323 -0.176284 0)
(-0.169175 -0.195249 0)
(-0.157063 -0.21108 0)
(-0.142978 -0.222994 0)
(-0.127021 -0.230141 0)
(-0.109431 -0.231634 0)
(-0.0906192 -0.226599 0)
(-0.0712008 -0.214238 0)
(-0.0520042 -0.193905 0)
(-0.0340434 -0.165189 0)
(-0.0184685 -0.127989 0)
(-0.00680518 -0.0825675 0)
(-0.00109088 -0.0296342 0)
(-0.00101974 0.031319 0)
(-0.00628313 0.0860584 0)
(-0.0169249 0.132119 0)
(-0.0310087 0.169226 0)
(-0.0471195 0.197538 0)
(-0.0642373 0.217517 0)
(-0.0815012 0.229835 0)
(-0.0982363 0.235298 0)
(-0.113965 0.23476 0)
(-0.128382 0.229068 0)
(-0.141326 0.219022 0)
(-0.152741 0.205348 0)
(-0.162654 0.188683 0)
(-0.171145 0.169575 0)
(-0.178321 0.148484 0)
(-0.184303 0.125792 0)
(-0.189209 0.101813 0)
(-0.193142 0.0768045 0)
(-0.196182 0.0509808 0)
(-0.198381 0.0245286 0)
(-0.199758 -0.00237989 0)
(-0.200292 -0.0295722 0)
(-0.199925 -0.05686 0)
(-0.198559 -0.084023 0)
(-0.19606 -0.110792 0)
(-0.192259 -0.136831 0)
(-0.186965 -0.161722 0)
(-0.179974 -0.184945 0)
(-0.171089 -0.20587 0)
(-0.160149 -0.223743 0)
(-0.147058 -0.237692 0)
(-0.131825 -0.24674 0)
(-0.114615 -0.249833 0)
(-0.0957871 -0.245895 0)
(-0.075944 -0.2339 0)
(-0.0559548 -0.212969 0)
(-0.0369342 -0.182476 0)
(-0.0201937 -0.142153 0)
(-0.00750227 -0.0921744 0)
(-0.00121805 -0.0332664 0)
(-0.00112683 0.0346604 0)
(-0.00686221 0.0948121 0)
(-0.0183334 0.144906 0)
(-0.0333121 0.184695 0)
(-0.0501665 0.214471 0)
(-0.0677411 0.23489 0)
(-0.0850992 0.246851 0)
(-0.101544 0.251379 0)
(-0.116621 0.249527 0)
(-0.130079 0.242314 0)
(-0.141825 0.230672 0)
(-0.151887 0.215422 0)
(-0.160369 0.197269 0)
(-0.167425 0.176799 0)
(-0.17323 0.154491 0)
(-0.177965 0.130727 0)
(-0.181795 0.105808 0)
(-0.184864 0.0799688 0)
(-0.187286 0.0533946 0)
(-0.189136 0.0262367 0)
(-0.190449 -0.00137249 0)
(-0.191215 -0.0293027 0)
(-0.191376 -0.0574093 0)
(-0.190825 -0.0855153 0)
(-0.189408 -0.113392 0)
(-0.186925 -0.14074 0)
(-0.183137 -0.167165 0)
(-0.177776 -0.192156 0)
(-0.170569 -0.21507 0)
(-0.161256 -0.235109 0)
(-0.149633 -0.251317 0)
(-0.135597 -0.262583 0)
(-0.119205 -0.267673 0)
(-0.100733 -0.265273 0)
(-0.0807405 -0.254082 0)
(-0.060118 -0.232922 0)
(-0.0400796 -0.200881 0)
(-0.022119 -0.157456 0)
(-0.0082975 -0.10268 0)
(-0.00136697 -0.0372824 0)
(-0.00125857 0.0383272 0)
(-0.00755519 0.104314 0)
(-0.0199791 0.158604 0)
(-0.0359284 0.200995 0)
(-0.0535025 0.231972 0)
(-0.0713911 0.252456 0)
(-0.088584 0.263637 0)
(-0.104382 0.266816 0)
(-0.118379 0.263289 0)
(-0.130407 0.254266 0)
(-0.140472 0.240825 0)
(-0.148701 0.223886 0)
(-0.155297 0.204215 0)
(-0.160499 0.182432 0)
(-0.164559 0.15902 0)
(-0.167716 0.134353 0)
(-0.170191 0.10871 0)
(-0.172169 0.0822935 0)
(-0.173794 0.0552513 0)
(-0.175168 0.0276912 0)
(-0.176344 -0.000301186 0)
(-0.177322 -0.0286456 0)
(-0.178049 -0.0572496 0)
(-0.178413 -0.0859897 0)
(-0.178245 -0.11469 0)
(-0.177317 -0.1431 0)
(-0.175346 -0.170867 0)
(-0.172005 -0.197509 0)
(-0.166932 -0.222386 0)
(-0.159765 -0.244675 0)
(-0.150172 -0.263347 0)
(-0.137909 -0.277165 0)
(-0.122889 -0.284696 0)
(-0.10526 -0.284362 0)
(-0.0854985 -0.274528 0)
(-0.0644829 -0.253639 0)
(-0.0435144 -0.2204 0)
(-0.0242877 -0.173978 0)
(-0.00921701 -0.114193 0)
(-0.00154438 -0.0417405 0)
(-0.00142532 0.0423892 0)
(-0.00840481 0.114699 0)
(-0.0219408 0.173323 0)
(-0.038945 0.218149 0)
(-0.0571824 0.249938 0)
(-0.0751703 0.269978 0)
(-0.0918396 0.279839 0)
(-0.10652 0.281167 0)
(-0.118895 0.275545 0)
(-0.128918 0.2644 0)
(-0.136725 0.248959 0)
(-0.142571 0.23024 0)
(-0.14677 0.20906 0)
(-0.149659 0.186055 0)
(-0.151569 0.161704 0)
(-0.152804 0.136357 0)
(-0.153634 0.110257 0)
(-0.154283 0.0835691 0)
(-0.154927 0.0563926 0)
(-0.155691 0.0287858 0)
(-0.156645 0.000780996 0)
(-0.157803 -0.0275979 0)
(-0.159119 -0.056318 0)
(-0.160482 -0.085318 0)
(-0.161716 -0.114486 0)
(-0.162571 -0.143635 0)
(-0.162731 -0.172472 0)
(-0.161809 -0.200565 0)
(-0.159364 -0.227304 0)
(-0.15492 -0.251863 0)
(-0.148004 -0.273166 0)
(-0.138202 -0.289861 0)
(-0.125241 -0.300318 0)
(-0.109089 -0.302664 0)
(-0.0900774 -0.294873 0)
(-0.0690215 -0.274916 0)
(-0.0472797 -0.240995 0)
(-0.0267587 -0.191807 0)
(-0.0102983 -0.126842 0)
(-0.0017603 -0.0467157 0)
(-0.00164297 0.0469439 0)
(-0.00947277 0.126143 0)
(-0.0243251 0.189201 0)
(-0.0424681 0.236161 0)
(-0.0612525 0.268201 0)
(-0.079016 0.287118 0)
(-0.0946638 0.29498 0)
(-0.107608 0.293861 0)
(-0.117679 0.285676 0)
(-0.125 0.272086 0)
(-0.129878 0.254468 0)
(-0.132719 0.233922 0)
(-0.133965 0.211297 0)
(-0.134057 0.187225 0)
(-0.133403 0.16216 0)
(-0.132369 0.136415 0)
(-0.131268 0.110186 0)
(-0.130359 0.0835841 0)
(-0.129842 0.0566576 0)
(-0.129861 0.0294083 0)
(-0.130505 0.001811 0)
(-0.131799 -0.0261711 0)
(-0.13371 -0.0545693 0)
(-0.136133 -0.0833911 0)
(-0.138894 -0.112598 0)
(-0.141736 -0.142081 0)
(-0.144318 -0.171624 0)
(-0.14621 -0.200869 0)
(-0.146897 -0.229268 0)
(-0.145795 -0.256027 0)
(-0.14228 -0.280056 0)
(-0.135743 -0.299918 0)
(-0.125682 -0.313801 0)
(-0.111818 -0.319523 0)
(-0.0942578 -0.314607 0)
(-0.0736731 -0.296446 0)
(-0.0514205 -0.262573 0)
(-0.0296121 -0.211029 0)
(-0.0115964 -0.140794 0)
(-0.00203025 -0.0523079 0)
(-0.0019366 0.0521298 0)
(-0.0108496 0.138884 0)
(-0.0272752 0.206393 0)
(-0.0466192 0.254992 0)
(-0.0657279 0.286488 0)
(-0.0827755 0.303391 0)
(-0.0967089 0.308419 0)
(-0.107106 0.304167 0)
(-0.114023 0.292922 0)
(-0.117815 0.276585 0)
(-0.119 0.256666 0)
(-0.118159 0.234317 0)
(-0.115872 0.21039 0)
(-0.11268 0.185486 0)
(-0.109064 0.160011 0)
(-0.105439 0.134219 0)
(-0.102151 0.108245 0)
(-0.0994802 0.0821406 0)
(-0.0976433 0.0558941 0)
(-0.096798 0.0294485 0)
(-0.0970438 0.00271928 0)
(-0.0984214 -0.0243919 0)
(-0.10091 -0.0519822 0)
(-0.104422 -0.080131 0)
(-0.108794 -0.10888 0)
(-0.113778 -0.138207 0)
(-0.119027 -0.167992 0)
(-0.124088 -0.197977 0)
(-0.128394 -0.227708 0)
(-0.131266 -0.256468 0)
(-0.13193 -0.283204 0)
(-0.129572 -0.306445 0)
(-0.123415 -0.32423 0)
(-0.112861 -0.33408 0)
(-0.0976922 -0.333026 0)
(-0.0783142 -0.317761 0)
(-0.0559776 -0.284954 0)
(-0.0329565 -0.23172 0)
(-0.0131935 -0.156256 0)
(-0.00237908 -0.0586545 0)
(-0.00234736 0.0581473 0)