/*--------------------------------*- C++ -*----------------------------------*\
| =========                 |                                                 |
| \\      /  F ield         | OpenFOAM: The Open Source CFD Toolbox           |
|  \\    /   O peration     | Version:  2.4.0                                 |
|   \\  /    A nd           | Web:      www.OpenFOAM.org                      |
|    \\/     M anipulation  |                                                 |
\*---------------------------------------------------------------------------*/
FoamFile
{
    version     2.0;
    format      ascii;
    class       volVectorField;
    location    "0.95";
    object      U;
}
// * * * * * * * * * * * * * * * * * * * * * * * * * * * * * * * * * * * * * //

dimensions      [0 1 -1 0 0 0 0];

internalField   nonuniform List<vector> 
1935
(
(1.65617e-33 6.0748e-38 0)
(3.81389e-34 -1.84129e-34 0)
(8.38917e-35 -4.63758e-35 0)
(1.34474e-35 -2.85859e-35 0)
(-2.17992e-35 -1.55642e-34 0)
(-6.78515e-34 -1.29346e-33 0)
(-1.12385e-32 -8.86747e-33 0)
(-1.36748e-31 -6.47067e-32 0)
(-1.14877e-30 -2.87486e-31 0)
(-1.31623e-31 -2.13448e-30 0)
(2.13348e-32 -8.85441e-30 0)
(-6.75478e-33 -7.70465e-29 0)
(-6.7708e-32 1.71182e-30 0)
(-4.67873e-33 7.89797e-29 0)
(3.34416e-32 9.13166e-30 0)
(5.25974e-33 2.25349e-30 0)
(1.48504e-35 5.66144e-31 0)
(-4.86496e-33 2.13505e-30 0)
(-3.0425e-32 7.30934e-30 0)
(5.23921e-32 7.56393e-29 0)
(1.16513e-31 -1.055e-28 0)
(-3.91449e-32 -1.92754e-28 0)
(-1.16687e-31 -1.6038e-29 0)
(4.14798e-32 7.55767e-29 0)
(1.16275e-31 -1.10537e-28 0)
(-7.94003e-32 -1.96099e-28 0)
(-8.99336e-32 7.68088e-29 0)
(1.33918e-32 4.22459e-30 0)
(-1.84432e-31 2.35413e-31 0)
(-1.60281e-30 -1.35386e-29 0)
(-1.96794e-31 -1.07156e-28 0)
(-6.13814e-32 -1.24245e-29 0)
(-8.16258e-33 -2.97761e-30 0)
(-1.12254e-33 -4.04392e-31 0)
(-2.20297e-36 -1.21626e-31 0)
(1.05419e-33 -3.6546e-31 0)
(6.54168e-33 -2.75614e-30 0)
(4.0165e-32 -9.64679e-30 0)
(-6.86889e-32 -9.97449e-29 0)
(-1.5426e-31 1.38315e-28 0)
(4.41525e-32 2.55869e-28 0)
(1.10157e-31 3.14944e-29 0)
(1.72924e-32 8.1962e-30 0)
(1.15682e-32 -7.42418e-38 0)
(7.55128e-32 -9.42121e-38 0)
(4.17094e-31 -3.03078e-38 0)
(2.44759e-30 -8.07231e-39 0)
(2.5858e-33 -1.40713e-33 0)
(1.60468e-32 -9.24021e-33 0)
(8.46276e-32 -5.77191e-32 0)
(4.44379e-31 -2.81097e-31 0)
(5.37217e-34 -3.28877e-34 0)
(3.1025e-33 -2.0944e-33 0)
(1.46003e-32 -1.23685e-32 0)
(6.58717e-32 -5.68817e-32 0)
(8.10587e-35 -6.63928e-35 0)
(4.33289e-34 -4.35513e-34 0)
(1.87499e-33 -2.50687e-33 0)
(7.38806e-33 -1.08403e-32 0)
(-2.63687e-36 4.13039e-35 0)
(4.15192e-35 2.50015e-35 0)
(2.21841e-34 -3.34191e-34 0)
(8.30702e-34 -1.4864e-33 0)
(-5.81571e-34 3.90304e-34 0)
(-2.49887e-34 6.98863e-34 0)
(-1.10111e-34 1.52752e-34 0)
(5.12855e-35 -1.52081e-34 0)
(-1.0306e-32 1.77994e-33 0)
(-3.28464e-33 3.84888e-33 0)
(-1.23069e-33 1.04544e-33 0)
(-2.70206e-34 2.09556e-34 0)
(-1.28949e-31 7.93961e-33 0)
(-3.11256e-32 2.16848e-32 0)
(-8.37072e-33 5.07035e-33 0)
(-1.61894e-33 1.06063e-33 0)
(-1.09106e-30 -7.53087e-32 0)
(-1.82178e-31 -1.57855e-32 0)
(-4.53856e-32 -2.54957e-33 0)
(-7.84083e-33 -3.83626e-34 0)
(1.19636e-31 -5.17694e-31 0)
(3.6362e-32 -1.1619e-31 0)
(6.87669e-33 -1.86108e-32 0)
(9.93685e-34 -2.90708e-33 0)
(1.49532e-30 -1.91883e-30 0)
(3.38534e-31 -2.53448e-31 0)
(7.14543e-32 -2.4186e-32 0)
(1.14575e-32 -1.72737e-33 0)
(-2.97238e-31 -1.11527e-29 0)
(-7.99623e-32 -1.19374e-30 0)
(-1.81779e-32 -9.57264e-32 0)
(-3.13275e-33 -4.86086e-33 0)
(-3.14794e-30 2.64715e-31 0)
(-7.21138e-31 3.00687e-32 0)
(-1.54276e-31 2.59521e-33 0)
(-2.50585e-32 1.60307e-34 0)
(-2.31426e-31 1.14657e-29 0)
(-6.45419e-32 1.23018e-30 0)
(-1.47799e-32 9.89075e-32 0)
(-2.56445e-33 5.05225e-33 0)
(1.54671e-30 1.97695e-30 0)
(3.51728e-31 2.5873e-31 0)
(7.48528e-32 2.42098e-32 0)
(1.20961e-32 1.61031e-33 0)
(2.55637e-31 5.22583e-31 0)
(6.94582e-32 9.69214e-32 0)
(1.57101e-32 1.38905e-32 0)
(2.6954e-33 1.89186e-33 0)
(1.96592e-33 1.47504e-31 0)
(7.27598e-34 3.05031e-32 0)
(2.11547e-34 4.86347e-33 0)
(4.41486e-35 7.21866e-34 0)
(-2.26303e-31 4.81822e-31 0)
(-6.03256e-32 8.62791e-32 0)
(-1.33014e-32 1.18747e-32 0)
(-2.23302e-33 1.55328e-33 0)
(-1.37844e-30 1.52503e-30 0)
(-2.95589e-31 1.58318e-31 0)
(-6.11485e-32 7.74862e-33 0)
(-9.59063e-33 -9.01745e-34 0)
(2.46744e-30 9.94217e-30 0)
(5.91815e-31 9.55797e-31 0)
(1.28805e-31 6.44045e-32 0)
(2.12915e-32 1.21604e-33 0)
(5.41114e-30 -1.6289e-29 0)
(1.23693e-30 -1.84881e-30 0)
(2.64241e-31 -1.59728e-31 0)
(4.28609e-32 -9.98345e-33 0)
(-1.8069e-30 -2.87919e-29 0)
(-4.10254e-31 -3.16001e-30 0)
(-8.71603e-32 -2.61075e-31 0)
(-1.40609e-32 -1.43917e-32 0)
(-5.39666e-30 -3.58447e-30 0)
(-1.22592e-30 -5.50566e-31 0)
(-2.60827e-31 -6.54378e-32 0)
(-4.21384e-32 -7.14339e-33 0)
(1.91193e-30 9.42008e-30 0)
(4.33487e-31 7.99469e-31 0)
(9.19902e-32 3.71386e-32 0)
(1.48264e-32 -3.00446e-33 0)
(5.36841e-30 -1.69594e-29 0)
(1.20807e-30 -1.9039e-30 0)
(2.5618e-31 -1.61853e-31 0)
(4.12389e-32 -9.64123e-33 0)
(-3.67804e-30 -2.86764e-29 0)
(-8.29276e-31 -3.12698e-30 0)
(-1.7638e-31 -2.59256e-31 0)
(-2.84749e-32 -1.47906e-32 0)
(-4.14377e-30 9.48433e-30 0)
(-9.60395e-31 8.92202e-31 0)
(-2.06252e-31 6.17088e-32 0)
(-3.36393e-32 1.92636e-33 0)
(1.32603e-30 9.24455e-31 0)
(2.74508e-31 5.29314e-32 0)
(5.56537e-32 -7.06997e-33 0)
(8.53626e-33 -2.87996e-33 0)
(3.7278e-31 -5.90803e-32 0)
(1.05471e-31 4.75133e-34 0)
(2.14889e-32 1.16356e-33 0)
(3.36129e-33 5.0358e-34 0)
(5.3894e-31 -2.83156e-30 0)
(2.18936e-31 -3.69137e-31 0)
(3.7371e-32 -3.49232e-32 0)
(5.35303e-33 -2.43537e-33 0)
(-2.13688e-31 -1.58295e-29 0)
(-5.12865e-32 -1.78103e-30 0)
(-1.34592e-32 -1.55902e-31 0)
(-2.5645e-33 -1.066e-32 0)
(-2.11991e-30 -2.71233e-30 0)
(-4.87156e-31 -3.67889e-31 0)
(-1.04991e-31 -3.68186e-32 0)
(-1.71685e-32 -2.96269e-33 0)
(-3.53824e-31 -6.91765e-31 0)
(-9.67878e-32 -1.29308e-31 0)
(-2.21344e-32 -1.86962e-32 0)
(-3.83531e-33 -2.57821e-33 0)
(-6.18836e-32 -1.06495e-31 0)
(-1.78174e-32 -2.26172e-32 0)
(-4.34469e-33 -3.70034e-33 0)
(-7.89677e-34 -5.64521e-34 0)
(-4.37606e-34 -3.31415e-32 0)
(-1.52755e-34 -7.70035e-33 0)
(-4.67863e-35 -1.35508e-33 0)
(-1.00868e-35 -2.20532e-34 0)
(5.81441e-32 -9.48614e-32 0)
(1.64791e-32 -1.9409e-32 0)
(3.94965e-33 -3.06352e-33 0)
(7.06592e-34 -4.50028e-34 0)
(3.06528e-31 -6.19208e-31 0)
(8.20258e-32 -1.10011e-31 0)
(1.81708e-32 -1.49949e-32 0)
(3.06369e-33 -1.93999e-33 0)
(1.82008e-30 -2.01232e-30 0)
(3.90516e-31 -2.08886e-31 0)
(8.08095e-32 -1.02066e-32 0)
(1.26783e-32 1.19504e-33 0)
(-3.23705e-30 -1.31141e-29 0)
(-7.77024e-31 -1.25986e-30 0)
(-1.69208e-31 -8.46467e-32 0)
(-2.79853e-32 -1.53484e-33 0)
(-7.17459e-30 2.13954e-29 0)
(-1.64356e-30 2.43734e-30 0)
(-3.51587e-31 2.12002e-31 0)
(-5.71027e-32 1.35162e-32 0)
(2.03156e-30 3.84385e-29 0)
(4.47677e-31 4.26361e-30 0)
(9.42829e-32 3.58583e-31 0)
(1.50631e-32 2.09607e-32 0)
(5.12526e-30 6.89695e-30 0)
(1.1869e-30 9.55347e-31 0)
(2.54876e-31 9.83669e-32 0)
(4.15653e-32 8.33202e-33 0)
(8.17096e-31 1.93801e-30 0)
(2.24671e-31 3.48306e-31 0)
(5.17483e-32 4.81984e-32 0)
(9.0298e-33 6.26463e-33 0)
(9.87313e-30 -1.53825e-39 0)
(6.88647e-29 -2.7297e-40 0)
(6.10597e-29 6.55835e-41 0)
(-6.06581e-29 9.28582e-41 0)
(-6.6526e-29 -4.5738e-41 0)
(3.45395e-31 -1.05792e-40 0)
(6.89133e-29 -5.50995e-41 0)
(7.08513e-29 4.3511e-41 0)
(1.01311e-29 5.35468e-41 0)
(2.32429e-30 1.00397e-41 0)
(3.442e-31 1.49967e-42 0)
(5.36318e-32 -2.8442e-42 0)
(-6.44053e-33 -3.35088e-41 0)
(-1.02673e-31 -3.46671e-40 0)
(-6.34083e-31 -3.3659e-39 0)
(-4.3104e-30 -2.83359e-38 0)
(-1.79843e-29 -1.70889e-37 0)
(-1.31847e-28 4.62908e-37 0)
(-6.88567e-29 3.74257e-35 0)
(6.10104e-29 7.95883e-34 0)
(7.67645e-29 1.14478e-32 0)
(7.31598e-29 1.23546e-31 0)
(1.27516e-29 9.35392e-31 0)
(1.25737e-29 1.23583e-31 0)
(7.15426e-29 1.22063e-32 0)
(7.12438e-29 1.14479e-32 0)
(1.01809e-29 1.12135e-31 0)
(2.35026e-30 8.11846e-31 0)
(3.75954e-31 -8.11845e-31 0)
(1.53391e-31 -1.1206e-31 0)
(6.9071e-31 -9.83628e-33 0)
(4.62403e-30 1.09775e-32 0)
(2.01385e-29 1.2665e-31 0)
(1.40626e-28 9.59686e-31 0)
(1.36146e-28 1.38097e-31 0)
(-3.51278e-29 1.35244e-31 0)
(5.54852e-29 9.35442e-31 0)
(-9.45221e-30 1.12893e-31 0)
(-1.23882e-28 -1.01034e-31 0)
(-1.52022e-29 -8.12116e-31 0)
(1.67026e-30 -1.35835e-30 0)
(8.12004e-30 -9.19941e-31 0)
(6.81914e-30 2.58376e-30 0)
(-6.73685e-30 2.54245e-30 0)
(-7.69366e-30 -1.18402e-30 0)
(7.03472e-32 -2.76477e-30 0)
(8.13029e-30 -1.44179e-30 0)
(8.47458e-30 1.13698e-30 0)
(1.72446e-30 1.39981e-30 0)
(4.23161e-31 2.63536e-31 0)
(7.00707e-32 4.78487e-32 0)
(1.1375e-32 6.83345e-33 0)
(-1.43546e-33 2.56981e-33 0)
(-2.17397e-32 1.24904e-32 0)
(-1.2861e-31 8.91225e-32 0)
(-7.77591e-31 4.80006e-31 0)
(-3.03549e-30 2.54164e-30 0)
(-1.52801e-29 9.13745e-31 0)
(-8.11833e-30 -3.81655e-30 0)
(6.80819e-30 -3.03567e-30 0)
(9.43801e-30 -3.10414e-31 0)
(8.87939e-30 1.3275e-30 0)
(2.20754e-30 1.29817e-30 0)
(2.18761e-30 -1.11419e-30 0)
(8.61778e-30 -1.13245e-30 0)
(8.55309e-30 1.19347e-30 0)
(1.72311e-30 1.42738e-30 0)
(4.4382e-31 3.63042e-31 0)
(9.19935e-32 -5.25631e-32 0)
(2.04424e-32 -2.66539e-32 0)
(1.3766e-31 -9.59307e-32 0)
(8.37264e-31 -5.12139e-31 0)
(3.4059e-30 -2.64961e-30 0)
(1.67781e-29 -1.22706e-30 0)
(1.60719e-29 3.47079e-30 0)
(-2.46377e-30 1.74739e-30 0)
(5.92285e-30 -8.8475e-32 0)
(-1.56838e-30 3.44586e-30 0)
(-1.39303e-29 2.18569e-31 0)
(-2.48378e-30 -1.82749e-30 0)
(1.76877e-31 -2.35196e-31 0)
(6.47046e-31 -1.46971e-31 0)
(5.25067e-31 4.4465e-31 0)
(-5.10441e-31 4.35862e-31 0)
(-5.82439e-31 -2.00661e-31 0)
(1.22813e-32 -4.80688e-31 0)
(6.48954e-31 -2.52947e-31 0)
(6.98912e-31 1.9058e-31 0)
(1.85858e-31 2.44005e-31 0)
(6.38601e-32 5.35899e-32 0)
(1.22201e-32 1.02714e-32 0)
(2.21219e-33 1.55543e-33 0)
(-2.97764e-34 6.01296e-34 0)
(-4.21997e-33 2.83335e-33 0)
(-2.21941e-32 1.90495e-32 0)
(-1.15776e-31 9.7091e-32 0)
(-3.09724e-31 4.35674e-31 0)
(-1.22129e-30 1.45541e-31 0)
(-6.46614e-31 -6.55792e-31 0)
(5.2293e-31 -5.35907e-31 0)
(7.72166e-31 -6.33949e-32 0)
(7.59637e-31 2.28946e-31 0)
(2.59978e-31 2.25727e-31 0)
(2.57051e-31 -1.85229e-31 0)
(7.23958e-31 -1.89239e-31 0)
(7.12777e-31 2.03068e-31 0)
(1.86081e-31 2.50192e-31 0)
(6.74841e-32 7.51702e-32 0)
(1.6095e-32 -1.15184e-32 0)
(4.37597e-33 -5.95265e-33 0)
(2.33947e-32 -2.07249e-32 0)
(1.22991e-31 -1.03719e-31 0)
(3.49069e-31 -4.59848e-31 0)
(1.37728e-30 -2.40333e-31 0)
(1.3555e-30 5.84116e-31 0)
(-8.62741e-32 3.16393e-31 0)
(4.63744e-31 2.34733e-32 0)
(-1.6073e-31 5.82359e-31 0)
(-1.10409e-30 4.42797e-32 0)
(-2.82824e-31 -2.9487e-31 0)
(1.39625e-32 -4.21308e-32 0)
(3.65584e-32 -2.55965e-32 0)
(2.87517e-32 7.97842e-32 0)
(-2.68244e-32 7.80087e-32 0)
(-2.91572e-32 -3.58321e-32 0)
(1.59552e-33 -8.64481e-32 0)
(3.68194e-32 -4.57632e-32 0)
(4.22853e-32 3.37827e-32 0)
(1.50899e-32 4.39548e-32 0)
(7.28479e-33 1.02085e-32 0)
(1.58599e-33 2.09179e-33 0)
(3.10839e-34 3.33939e-34 0)
(-4.40916e-35 1.3444e-34 0)
(-5.91997e-34 6.05262e-34 0)
(-2.85597e-33 3.86394e-33 0)
(-1.30242e-32 1.83658e-32 0)
(-2.31547e-32 7.79665e-32 0)
(-7.06537e-32 2.52955e-32 0)
(-3.64897e-32 -1.17754e-31 0)
(2.84449e-32 -9.70096e-32 0)
(4.47651e-32 -1.22383e-32 0)
(4.90341e-32 4.06198e-32 0)
(2.36867e-32 3.91288e-32 0)
(2.34984e-32 -3.29634e-32 0)
(4.55647e-32 -3.35282e-32 0)
(4.40892e-32 3.6314e-32 0)
(1.50591e-32 4.49892e-32 0)
(7.89445e-33 1.30883e-32 0)
(2.23154e-33 -8.33672e-34 0)
(5.43034e-34 -9.7292e-34 0)
(2.95861e-33 -4.12955e-33 0)
(1.36949e-32 -1.93797e-32 0)
(2.6555e-32 -8.15038e-32 0)
(8.28327e-32 -3.7502e-32 0)
(8.68115e-32 1.05271e-31 0)
(3.31902e-33 5.80621e-32 0)
(2.78166e-32 5.33148e-33 0)
(-1.18772e-32 1.04139e-31 0)
(-6.4512e-32 9.36319e-33 0)
(-2.52089e-32 -5.04819e-32 0)
(9.60772e-34 -5.44697e-33 0)
(8.40913e-34 -3.19427e-33 0)
(5.75723e-34 1.03193e-32 0)
(-3.26998e-34 1.00644e-32 0)
(1.31503e-35 -4.6067e-33 0)
(2.03226e-34 -1.12184e-32 0)
(8.75804e-34 -5.97296e-33 0)
(1.47962e-33 4.31073e-33 0)
(1.10161e-33 5.713e-33 0)
(8.37005e-34 1.4079e-33 0)
(2.01815e-34 3.02566e-34 0)
(4.23689e-35 5.04898e-35 0)
(-6.25907e-36 2.09306e-35 0)
(-8.06004e-35 9.11572e-35 0)
(-3.60507e-34 5.56921e-34 0)
(-1.47793e-33 2.51954e-33 0)
(-1.4013e-33 1.00578e-32 0)
(-2.00249e-33 3.14925e-33 0)
(-8.30657e-34 -1.52356e-32 0)
(5.33792e-34 -1.2679e-32 0)
(1.15933e-33 -1.69743e-33 0)
(2.24768e-33 5.2432e-33 0)
(2.10326e-33 5.11211e-33 0)
(2.08753e-33 -4.17978e-33 0)
(1.8978e-33 -4.2671e-33 0)
(1.71153e-33 4.68359e-33 0)
(1.10205e-33 5.87253e-33 0)
(9.16544e-34 1.84356e-33 0)
(2.86241e-34 -1.4005e-34 0)
(7.71691e-35 -1.48946e-34 0)
(3.66889e-34 -5.94575e-34 0)
(1.52404e-33 -2.63864e-33 0)
(1.61188e-33 -1.04585e-32 0)
(2.81975e-33 -4.54997e-33 0)
(4.01914e-33 1.36208e-32 0)
(1.27713e-33 7.72603e-33 0)
(1.09668e-33 1.11634e-33 0)
(-7.17201e-34 1.34276e-32 0)
(-2.06521e-33 1.35289e-33 0)
(-2.21095e-33 -6.36197e-33 0)
(5.43248e-35 -6.9469e-34 0)
(-1.00721e-34 -4.03253e-34 0)
(-8.92845e-35 1.33344e-33 0)
(1.17549e-34 1.29794e-33 0)
(1.8982e-34 -5.93499e-34 0)
(2.30507e-35 -1.45113e-33 0)
(-9.54044e-35 -7.75935e-34 0)
(-3.37536e-35 5.5226e-34 0)
(7.77275e-35 7.39837e-34 0)
(8.82093e-35 1.88409e-34 0)
(2.28728e-35 4.22186e-35 0)
(5.02514e-36 7.29281e-36 0)
(-7.65783e-37 3.10281e-36 0)
(-9.55123e-36 1.31203e-35 0)
(-4.06262e-35 7.74886e-35 0)
(-1.54245e-34 3.35532e-34 0)
(-7.13758e-35 1.29695e-33 0)
(1.29177e-34 3.97943e-34 0)
(1.00769e-34 -1.97003e-33 0)
(-9.41362e-35 -1.64715e-33 0)
(-1.03875e-34 -2.28924e-34 0)
(4.57044e-35 6.73223e-34 0)
(1.84415e-34 6.5536e-34 0)
(1.84152e-34 -5.35078e-34 0)
(1.3877e-35 -5.46031e-34 0)
(-7.37973e-36 6.04475e-34 0)
(7.7476e-35 7.61287e-34 0)
(9.82705e-35 2.41961e-34 0)
(3.35105e-35 -1.23372e-35 0)
(8.69946e-36 -1.97016e-35 0)
(4.05908e-35 -8.16656e-35 0)
(1.56374e-34 -3.46088e-34 0)
(8.08521e-35 -1.32844e-33 0)
(-7.73989e-35 -4.92829e-34 0)
(9.42586e-35 1.77786e-33 0)
(1.73878e-34 1.01778e-33 0)
(3.98077e-36 1.66674e-34 0)
(-3.48942e-35 1.7353e-33 0)
(7.60234e-35 1.9233e-34 0)
(-1.92649e-34 -8.04138e-34 0)
(-5.04667e-35 -4.2275e-35 0)
(-2.92778e-35 -3.94295e-35 0)
(-1.87408e-35 1.50581e-34 0)
(2.05592e-35 1.45794e-34 0)
(3.04548e-35 -6.65236e-35 0)
(2.56291e-36 -1.63459e-34 0)
(-2.03675e-35 -8.77459e-35 0)
(-1.39419e-35 6.15791e-35 0)
(6.07043e-36 8.34242e-35 0)
(9.38937e-36 2.19497e-35 0)
(2.54358e-36 5.07614e-36 0)
(5.77085e-37 9.02481e-37 0)
(-8.99182e-38 3.9171e-37 0)
(-1.09625e-36 1.61899e-36 0)
(-4.49884e-36 9.29395e-36 0)
(-1.6317e-35 3.89407e-35 0)
(-3.22318e-36 1.45597e-34 0)
(3.21984e-35 4.36984e-35 0)
(2.09849e-35 -2.21685e-34 0)
(-1.81057e-35 -1.86344e-34 0)
(-2.34584e-35 -2.67747e-35 0)
(-5.53194e-36 7.55725e-35 0)
(1.74999e-35 7.43238e-35 0)
(1.75248e-35 -5.93572e-35 0)
(-8.63807e-36 -6.07499e-35 0)
(-1.09925e-35 6.79348e-35 0)
(6.0731e-36 8.61302e-35 0)
(1.05237e-35 2.86226e-35 0)
(3.74304e-36 -1.7205e-36 0)
(1.01288e-36 -2.46643e-36 0)
(4.41185e-36 -9.73908e-36 0)
(1.62009e-35 -3.96619e-35 0)
(2.80101e-36 -1.47259e-34 0)
(-2.86213e-35 -4.77412e-35 0)
(-7.08227e-36 2.01535e-34 0)
(2.04785e-35 1.16861e-34 0)
(-5.39665e-36 2.26418e-35 0)
(-1.44423e-36 1.95193e-34 0)
(2.38208e-35 2.32224e-35 0)
(-1.81967e-35 -8.91866e-35 0)
(-2.79796e-34 1.49698e-34 0)
(-4.27434e-35 1.63824e-35 0)
(-7.5555e-36 1.91091e-35 0)
(1.72046e-36 1.63541e-35 0)
(3.38384e-36 -7.29435e-36 0)
(2.55447e-37 -1.80473e-35 0)
(-2.45151e-36 -9.71831e-36 0)
(-1.81879e-36 6.7533e-36 0)
(5.08278e-37 9.21961e-36 0)
(9.37901e-37 2.47888e-36 0)
(2.61995e-37 5.88056e-37 0)
(6.0777e-38 1.06874e-37 0)
(-9.64109e-39 4.7147e-38 0)
(-1.15403e-37 1.91268e-37 0)
(-4.61993e-37 1.07462e-36 0)
(-1.62255e-36 4.38383e-36 0)
(-1.28122e-37 1.60425e-35 0)
(3.9671e-36 4.74302e-36 0)
(2.5157e-36 -2.44751e-35 0)
(-2.13264e-36 -2.06399e-35 0)
(-2.85796e-36 -3.0373e-36 0)
(-9.87795e-37 8.30892e-36 0)
(1.65526e-36 8.19196e-36 0)
(1.66736e-36 -6.49721e-36 0)
(-1.2707e-36 -6.65396e-36 0)
(-1.51436e-36 7.49298e-36 0)
(5.06794e-37 9.53273e-36 0)
(1.06162e-36 3.21926e-36 0)
(3.92435e-37 -1.66813e-37 0)
(1.03191e-37 -2.8183e-37 0)
(4.44429e-37 -1.1128e-36 0)
(1.58108e-36 -4.38948e-36 0)
(-2.05214e-38 -1.59403e-35 0)
(-3.68889e-36 -4.12029e-36 0)
(-1.3603e-36 2.25074e-35 0)
(2.11009e-36 1.31073e-35 0)
(-7.58179e-37 2.73875e-36 0)
(-3.38177e-38 2.15543e-35 0)
(3.01296e-36 2.7146e-36 0)
(-1.71635e-36 -9.71261e-36 0)
(-1.29449e-33 -4.86108e-35 0)
(-1.77102e-34 -5.95447e-36 0)
(-2.36356e-35 1.0837e-36 0)
(-2.57995e-36 1.56556e-36 0)
(2.73539e-38 -7.48345e-37 0)
(-9.20668e-39 -1.83464e-36 0)
(-2.59636e-37 -9.90169e-37 0)
(-1.95057e-37 6.81464e-37 0)
(4.55753e-38 9.37416e-37 0)
(9.1847e-38 2.57315e-37 0)
(2.61664e-38 6.22741e-38 0)
(6.17113e-39 1.15309e-38 0)
(-9.92295e-40 5.15358e-39 0)
(-1.17142e-38 2.05955e-38 0)
(-4.60354e-38 1.13612e-37 0)
(-1.58432e-37 4.53896e-37 0)
(-4.3735e-39 1.62633e-36 0)
(4.17328e-37 4.73532e-37 0)
(2.62543e-37 -2.4855e-36 0)
(-2.21028e-37 -2.10319e-36 0)
(-2.99962e-37 -3.1602e-37 0)
(-1.13652e-37 8.42466e-37 0)
(1.58261e-37 8.37092e-37 0)
(1.59855e-37 -6.52876e-37 0)
(-1.39891e-37 -6.70222e-37 0)
(-1.64211e-37 7.60496e-37 0)
(4.55903e-38 9.71764e-37 0)
(1.0439e-37 3.37863e-37 0)
(3.93714e-38 -1.98171e-38 0)
(1.04305e-38 -3.06831e-38 0)
(4.34107e-38 -1.1669e-37 0)
(1.51155e-37 -4.47429e-37 0)
(-2.13941e-38 -1.5895e-36 0)
(-3.93046e-37 -3.19392e-37 0)
(-1.51267e-37 2.30944e-36 0)
(2.10155e-37 1.35264e-36 0)
(-8.14922e-38 3.08808e-37 0)
(1.28478e-39 2.18948e-36 0)
(3.18837e-37 2.88215e-37 0)
(-1.63456e-37 -9.77318e-37 0)
(9.81861e-35 -3.70546e-34 0)
(7.08397e-36 -4.44027e-35 0)
(7.63618e-38 -4.83614e-36 0)
(-4.18162e-38 -3.86496e-37 0)
(1.77977e-38 -1.29809e-37 0)
(7.74325e-41 -1.86762e-37 0)
(-2.4534e-38 -9.85115e-38 0)
(-1.86333e-38 6.68915e-38 0)
(4.04308e-39 9.26054e-38 0)
(8.50621e-39 2.58105e-38 0)
(2.46325e-39 6.34779e-39 0)
(5.88415e-40 1.19269e-39 0)
(-9.57214e-41 5.38729e-40 0)
(-1.11665e-39 2.1268e-39 0)
(-4.32583e-39 1.15656e-38 0)
(-1.46364e-38 4.54348e-38 0)
(-6.30906e-41 1.60317e-37 0)
(3.95904e-38 4.61435e-38 0)
(2.48485e-38 -2.45361e-37 0)
(-2.08419e-38 -2.08122e-37 0)
(-2.848e-38 -3.17794e-38 0)
(-1.11496e-38 8.29718e-38 0)
(1.45059e-38 8.2719e-38 0)
(1.47167e-38 -6.39878e-38 0)
(-1.34256e-38 -6.57575e-38 0)
(-1.57251e-38 7.5034e-38 0)
(4.03189e-39 9.61459e-38 0)
(9.73362e-39 3.39251e-38 0)
(3.75196e-39 -1.92314e-39 0)
(9.64862e-40 -3.12635e-39 0)
(3.99543e-39 -1.17408e-38 0)
(1.36807e-38 -4.39705e-38 0)
(-3.23741e-39 -1.53637e-37 0)
(-3.74266e-38 -2.02388e-38 0)
(-1.408e-38 2.30827e-37 0)
(1.95972e-38 1.35375e-37 0)
(-7.6672e-39 3.25039e-38 0)
(3.7632e-40 2.16209e-37 0)
(3.02856e-38 2.95036e-38 0)
(-1.49456e-38 -9.56213e-38 0)
(1.59084e-33 -6.89675e-35 0)
(1.91368e-34 3.78928e-37 0)
(2.18558e-35 4.18579e-37 0)
(2.34281e-36 6.74382e-38 0)
(2.43224e-37 -1.62685e-39 0)
(2.36584e-38 -1.64017e-38 0)
(6.74087e-42 -9.09477e-39 0)
(-1.49339e-39 6.19761e-39 0)
(3.73015e-40 8.61771e-39 0)
(7.66268e-40 2.4363e-39 0)
(2.24327e-40 6.0707e-40 0)
(5.41171e-41 1.15517e-40 0)
(-8.88362e-42 5.26389e-41 0)
(-1.0266e-40 2.05703e-40 0)
(-3.93161e-40 1.10479e-39 0)
(-1.31345e-39 4.28121e-39 0)
(9.58703e-42 1.48864e-38 0)
(3.58937e-39 4.23658e-39 0)
(2.25133e-39 -2.28118e-38 0)
(-1.88405e-39 -1.93965e-38 0)
(-2.58481e-39 -3.0036e-39 0)
(-1.02464e-39 7.70789e-39 0)
(1.2979e-39 7.73111e-39 0)
(1.32011e-39 -5.9007e-39 0)
(-1.22008e-39 -6.07629e-39 0)
(-1.42968e-39 6.97437e-39 0)
(3.54568e-40 8.96521e-39 0)
(8.78485e-40 3.22982e-39 0)
(3.43356e-40 -2.01345e-40 0)
(8.73264e-41 -3.05142e-40 0)
(3.55347e-40 -1.11066e-39 0)
(1.20031e-39 -4.07033e-39 0)
(-3.95269e-40 -1.39943e-38 0)
(-3.39659e-39 -9.18431e-40 0)
(-1.20947e-39 2.17155e-38 0)
(1.77736e-39 1.27594e-38 0)
(-6.8422e-40 3.23631e-39 0)
(4.61015e-41 2.01099e-38 0)
(2.74468e-39 2.8251e-39 0)
(-1.33316e-39 -8.83572e-39 0)
(-4.57738e-34 6.25017e-35 0)
(-5.77417e-35 4.41469e-35 0)
(-6.86531e-36 6.43111e-36 0)
(-7.63041e-37 7.34951e-37 0)
(-8.07755e-38 7.40292e-38 0)
(-8.1448e-39 5.6355e-39 0)
(-9.78961e-40 -1.71977e-40 0)
(-2.19127e-40 6.13533e-40 0)
(2.35267e-41 7.81959e-40 0)
(6.50867e-41 2.22577e-40 0)
(1.94143e-41 5.59891e-41 0)
(4.73248e-42 1.07602e-41 0)
(-7.84388e-43 4.93783e-42 0)
(-8.98461e-42 1.91343e-41 0)
(-3.40842e-41 1.01739e-40 0)
(-1.12545e-40 3.89872e-40 0)
(1.69426e-42 1.34018e-39 0)
(3.08995e-40 3.77958e-40 0)
(1.93791e-40 -2.05582e-39 0)
(-1.61887e-40 -1.75132e-39 0)
(-2.22849e-40 -2.74294e-40 0)
(-8.90426e-41 6.93822e-40 0)
(1.11078e-40 6.98336e-40 0)
(1.13384e-40 -5.28535e-40 0)
(-1.04909e-40 -5.44943e-40 0)
(-1.23182e-40 6.2837e-40 0)
(2.98643e-41 8.09605e-40 0)
(7.58206e-41 2.9548e-40 0)
(3.00956e-41 -1.86978e-41 0)
(7.41021e-42 -2.82684e-41 0)
(3.01196e-41 -1.01069e-40 0)
(1.00536e-40 -3.63449e-40 0)
(-4.20489e-41 -1.23311e-39 0)
(-2.92427e-40 1.13514e-41 0)
(-9.77277e-41 1.9825e-39 0)
(1.53616e-40 1.16414e-39 0)
(-5.77857e-41 3.06138e-40 0)
(4.98353e-42 1.81299e-39 0)
(2.36189e-40 2.60938e-40 0)
(-1.13901e-40 -7.91556e-40 0)
(-3.53088e-33 3.32834e-36 0)
(-4.30564e-34 -5.82179e-37 0)
(-4.9896e-35 -1.09483e-37 0)
(-5.41697e-36 -1.35035e-38 0)
(-5.63822e-37 -1.50882e-39 0)
(-5.57663e-38 -2.75978e-40 0)
(-5.32624e-39 -8.47327e-41 0)
(-4.96793e-40 4.64029e-41 0)
(-4.0247e-41 6.67443e-41 0)
(1.83485e-42 1.9305e-41 0)
(1.33604e-42 4.90743e-42 0)
(3.76845e-43 9.52094e-43 0)
(-6.86294e-44 4.39707e-43 0)
(-7.60089e-43 1.69185e-42 0)
(-2.8605e-42 8.91633e-42 0)
(-9.35565e-42 3.38513e-41 0)
(1.93179e-43 1.15112e-40 0)
(2.57533e-41 3.21821e-41 0)
(1.61526e-41 -1.76744e-40 0)
(-1.34743e-41 -1.50841e-40 0)
(-1.85964e-41 -2.38606e-41 0)
(-7.46535e-42 5.96348e-41 0)
(9.22827e-42 6.03207e-41 0)
(9.4433e-42 -4.514e-41 0)
(-8.72896e-42 -4.66268e-41 0)
(-1.02681e-41 5.40182e-41 0)
(2.4546e-42 6.97711e-41 0)
(6.33582e-42 2.58734e-41 0)
(2.54328e-42 -1.76793e-42 0)
(6.1242e-43 -2.51999e-42 0)
(2.46907e-42 -8.76171e-42 0)
(8.15476e-42 -3.09475e-41 0)
(-4.19157e-42 -1.03654e-40 0)
(-2.43687e-41 8.71443e-42 0)
(-7.54382e-42 1.72606e-40 0)
(1.29066e-41 1.01308e-40 0)
(-4.72342e-42 2.7659e-41 0)
(4.78004e-43 1.55936e-40 0)
(1.96744e-41 2.29004e-41 0)
(-9.44399e-42 -6.77689e-41 0)
(-3.74798e-34 -6.02794e-35 0)
(-4.72868e-35 -4.5258e-35 0)
(-5.60961e-36 -6.62614e-36 0)
(-6.22252e-37 -7.58858e-37 0)
(-6.58459e-38 -7.74771e-38 0)
(-6.61188e-39 -7.46249e-39 0)
(-6.38724e-40 -6.87696e-40 0)
(-5.9812e-41 -5.61548e-41 0)
(-5.04081e-42 4.69498e-43 0)
(-1.13882e-44 1.20453e-42 0)
(9.47614e-44 3.82473e-43 0)
(2.95527e-44 7.87069e-44 0)
(-5.69061e-45 3.75406e-44 0)
(-6.17344e-44 1.44317e-43 0)
(-2.30776e-43 7.55071e-43 0)
(-7.4809e-43 2.84461e-42 0)
(1.91554e-44 9.58745e-42 0)
(2.06321e-42 2.66086e-42 0)
(1.2942e-42 -1.47322e-41 0)
(-1.07825e-42 -1.2592e-41 0)
(-1.49184e-42 -2.00847e-42 0)
(-6.01733e-43 4.9686e-42 0)
(7.3762e-43 5.04283e-42 0)
(7.57151e-43 -3.74266e-42 0)
(-6.97858e-43 -3.87115e-42 0)
(-8.22676e-43 4.50215e-42 0)
(1.93822e-43 5.8265e-42 0)
(5.09724e-43 2.18546e-42 0)
(2.07085e-43 -1.5458e-43 0)
(4.81266e-44 -2.15138e-43 0)
(1.94397e-43 -7.32879e-43 0)
(6.35869e-43 -2.54663e-42 0)
(-3.89308e-43 -8.43391e-42 0)
(-1.95188e-42 1.4046e-42 0)
(-5.56698e-43 1.45796e-41 0)
(1.04243e-42 8.54053e-42 0)
(-3.70931e-43 2.39609e-42 0)
(4.38517e-44 1.30029e-41 0)
(1.57583e-42 1.94257e-42 0)
(-7.54113e-43 -5.62627e-42 0)
(1.69689e-33 4.30491e-35 0)
(2.06146e-34 -4.43852e-36 0)
(2.3813e-35 -9.35099e-37 0)
(2.57816e-36 -1.17238e-37 0)
(2.67725e-37 -1.24251e-38 0)
(2.64252e-38 -1.2191e-39 0)
(2.51174e-39 -1.13401e-40 0)
(2.28778e-40 -9.73843e-42 0)
(2.01618e-41 -4.14216e-43 0)
(1.74386e-42 5.99368e-44 0)
(1.5096e-43 2.81099e-44 0)
(1.37581e-44 6.21171e-45 0)
(4.34493e-46 3.07001e-45 0)
(-4.79111e-45 1.18083e-44 0)
(-1.80536e-44 6.13839e-44 0)
(-5.80959e-44 2.29749e-43 0)
(1.73063e-45 7.67918e-43 0)
(1.60471e-43 2.11648e-43 0)
(1.00671e-43 -1.18081e-42 0)
(-8.37818e-44 -1.01073e-42 0)
(-1.16164e-43 -1.62395e-43 0)
(-4.70255e-44 3.98306e-43 0)
(5.72665e-44 4.05963e-43 0)
(5.89255e-44 -2.98322e-43 0)
(-5.41778e-44 -3.0909e-43 0)
(-6.39848e-44 3.60864e-43 0)
(1.49023e-44 4.67966e-43 0)
(3.9778e-44 1.77808e-43 0)
(1.63145e-44 -1.34151e-44 0)
(3.67932e-45 -1.77414e-44 0)
(1.48305e-44 -5.8879e-44 0)
(4.80763e-44 -2.0138e-43 0)
(-3.45524e-44 -6.59611e-43 0)
(-1.51781e-43 1.6574e-43 0)
(-3.93968e-44 1.184e-42 0)
(8.18851e-44 6.92216e-43 0)
(-2.82843e-44 1.99591e-43 0)
(3.77569e-45 1.04266e-42 0)
(1.22533e-43 1.58053e-43 0)
(-5.84822e-44 -4.49693e-43 0)
(3.90568e-34 2.17599e-34 0)
(4.89276e-35 2.37374e-35 0)
(5.77107e-36 2.50123e-36 0)
(6.37078e-37 2.56601e-37 0)
(6.71473e-38 2.51937e-38 0)
(6.71933e-39 2.3887e-39 0)
(6.45914e-40 2.17299e-40 0)
(5.94573e-41 1.91388e-41 0)
(5.28227e-42 1.6558e-42 0)
(4.54441e-43 1.43522e-43 0)
(3.82136e-44 1.32684e-44 0)
(3.19501e-45 1.34731e-45 0)
(2.00534e-46 3.08421e-46 0)
(-3.51364e-46 9.39853e-46 0)
(-1.36445e-45 4.83468e-45 0)
(-4.36264e-45 1.79955e-44 0)
(1.47031e-46 5.97229e-44 0)
(1.20666e-44 1.63617e-44 0)
(7.57092e-45 -9.1889e-44 0)
(-6.29451e-45 -7.87517e-44 0)
(-8.74533e-45 -1.2732e-44 0)
(-3.55416e-45 3.09978e-44 0)
(4.29933e-45 3.16961e-44 0)
(4.4362e-45 -2.31065e-44 0)
(-4.06623e-45 -2.3974e-44 0)
(-4.81163e-45 2.80822e-44 0)
(1.10677e-45 3.6479e-44 0)
(3.00317e-45 1.40016e-44 0)
(1.24384e-45 -1.10068e-45 0)
(2.69814e-46 -1.40978e-45 0)
(1.09248e-45 -4.57775e-45 0)
(3.51174e-45 -1.54245e-44 0)
(-2.91554e-45 -5.00134e-44 0)
(-1.14111e-44 1.71762e-44 0)
(-2.67159e-45 9.3389e-44 0)
(6.21819e-45 5.44416e-44 0)
(-2.08461e-45 1.6035e-44 0)
(3.13452e-46 8.11703e-44 0)
(9.21375e-45 1.24598e-44 0)
(-4.38886e-45 -3.49025e-44 0)
(7.56098e-36 8.89177e-35 0)
(1.06667e-36 1.01035e-35 0)
(1.3849e-37 1.0935e-36 0)
(1.64564e-38 1.13967e-37 0)
(1.84122e-39 1.13275e-38 0)
(1.93355e-40 1.08369e-39 0)
(1.93423e-41 9.93994e-41 0)
(1.84058e-42 8.80371e-42 0)
(1.68231e-43 7.53867e-43 0)
(1.49227e-44 6.28746e-44 0)
(1.30324e-45 5.171e-45 0)
(1.15987e-46 4.2635e-46 0)
(5.58632e-48 4.80627e-47 0)
(-2.66181e-47 7.36248e-47 0)
(-1.00348e-46 3.67793e-46 0)
(-3.18711e-46 1.36215e-45 0)
(1.18374e-47 4.49077e-45 0)
(8.82528e-46 1.22332e-45 0)
(5.53782e-46 -6.91309e-45 0)
(-4.60016e-46 -5.93174e-45 0)
(-6.40285e-46 -9.6428e-46 0)
(-2.61071e-46 2.33314e-45 0)
(3.14014e-46 2.39452e-45 0)
(3.24771e-46 -1.73007e-45 0)
(-2.96901e-46 -1.79793e-45 0)
(-3.51929e-46 2.1129e-45 0)
(8.00882e-47 2.74942e-45 0)
(2.20394e-46 1.06681e-45 0)
(9.20293e-47 -8.86699e-47 0)
(1.92534e-47 -1.08557e-46 0)
(7.81381e-47 -3.43734e-46 0)
(2.49147e-46 -1.14127e-45 0)
(-2.36919e-46 -3.6636e-45 0)
(-8.34443e-46 1.61095e-45 0)
(-1.73404e-46 7.12072e-45 0)
(4.59781e-46 4.13881e-45 0)
(-1.49438e-46 1.24479e-45 0)
(2.48574e-47 6.1093e-45 0)
(6.73864e-46 9.48001e-46 0)
(-3.20417e-46 -2.62104e-45 0)
(-3.16102e-34 1.72129e-34 0)
(-3.89051e-35 1.82803e-35 0)
(-4.51524e-36 1.88945e-36 0)
(-4.92107e-37 1.9131e-37 0)
(-5.12931e-38 1.85886e-38 0)
(-5.08627e-39 1.74813e-39 0)
(-4.8512e-40 1.57898e-40 0)
(-4.43674e-41 1.3801e-41 0)
(-3.91827e-42 1.16393e-42 0)
(-3.33652e-43 9.5224e-44 0)
(-2.75211e-44 7.55319e-45 0)
(-2.19756e-45 5.83403e-46 0)
(-1.70756e-46 4.48325e-47 0)
(-1.4805e-47 8.46646e-48 0)
(-8.10383e-48 2.73756e-47 0)
(-2.2668e-47 1.00219e-46 0)
(9.07776e-49 3.28447e-46 0)
(6.26461e-47 8.90224e-47 0)
(3.93146e-47 -5.05841e-46 0)
(-3.26317e-47 -4.34488e-46 0)
(-4.54992e-47 -7.09679e-47 0)
(-1.86157e-47 1.70791e-46 0)
(2.22627e-47 1.75822e-46 0)
(2.30842e-47 -1.26061e-46 0)
(-2.10406e-47 -1.31192e-46 0)
(-2.49844e-47 1.54616e-46 0)
(5.62172e-48 2.015e-46 0)
(1.57038e-47 7.88977e-47 0)
(6.61154e-48 -6.83875e-48 0)
(1.32544e-48 -8.09109e-48 0)
(5.41702e-48 -2.50451e-47 0)
(1.71382e-47 -8.19752e-47 0)
(-1.84913e-47 -2.60645e-46 0)
(-5.92245e-47 1.41771e-46 0)
(-1.07507e-47 5.28186e-46 0)
(3.29964e-47 3.05905e-46 0)
(-1.03945e-47 9.35883e-47 0)
(1.9078e-48 4.47201e-46 0)
(4.78417e-47 7.00518e-47 0)
(-2.27187e-47 -1.91467e-46 0)
(-1.31813e-33 -2.69447e-34 0)
(-1.57068e-34 -4.00895e-35 0)
(-1.78756e-35 -4.77961e-36 0)
(-1.90894e-36 -5.16226e-37 0)
(-1.9602e-37 -5.18559e-38 0)
(-1.91494e-38 -4.97226e-39 0)
(-1.80443e-39 -4.55564e-40 0)
(-1.63089e-40 -4.02664e-41 0)
(-1.42575e-41 -3.42929e-42 0)
(-1.20228e-42 -2.82871e-43 0)
(-9.83176e-44 -2.25852e-44 0)
(-7.78753e-45 -1.75134e-45 0)
(-5.99609e-46 -1.31818e-46 0)
(-4.49938e-47 -9.291e-48 0)
(-3.76635e-48 1.25375e-48 0)
(-1.79382e-48 7.10359e-48 0)
(5.15071e-50 2.33117e-47 0)
(4.33188e-48 6.2892e-48 0)
(2.71943e-48 -3.5922e-47 0)
(-2.25561e-48 -3.08856e-47 0)
(-3.15003e-48 -5.06601e-48 0)
(-1.29271e-48 1.2137e-47 0)
(1.53814e-48 1.25359e-47 0)
(1.59851e-48 -8.91435e-48 0)
(-1.4531e-48 -9.29169e-48 0)
(-1.72824e-48 1.09814e-47 0)
(3.8494e-49 1.4333e-47 0)
(1.08982e-48 5.66514e-48 0)
(4.62105e-49 -5.15708e-49 0)
(8.88534e-50 -5.85955e-49 0)
(3.65315e-49 -1.76939e-48 0)
(1.14693e-48 -5.70937e-48 0)
(-1.39657e-48 -1.79798e-47 0)
(-4.09576e-48 1.17605e-47 0)
(-6.33103e-49 3.80215e-47 0)
(2.309e-48 2.19403e-47 0)
(-7.04388e-49 6.82434e-48 0)
(1.41125e-49 3.17709e-47 0)
(3.30952e-48 5.0178e-48 0)
(-1.56981e-48 -1.35821e-47 0)
(3.02975e-33 -4.20278e-34 0)
(3.72959e-34 -7.89933e-35 0)
(4.35025e-35 -9.88634e-36 0)
(4.75174e-36 -1.07946e-36 0)
(4.96917e-37 -1.08334e-37 0)
(4.93618e-38 -1.03496e-38 0)
(4.71714e-39 -9.43925e-40 0)
(4.31873e-40 -8.30788e-41 0)
(3.8178e-41 -7.04683e-42 0)
(3.25256e-42 -5.79185e-43 0)
(2.68399e-43 -4.60897e-44 0)
(2.14377e-44 -3.56338e-45 0)
(1.66298e-45 -2.67611e-46 0)
(1.2527e-46 -1.95438e-47 0)
(9.15364e-48 -1.25828e-48 0)
(5.50961e-49 4.00213e-49 0)
(5.05231e-50 1.60606e-48 0)
(2.94826e-49 4.32733e-49 0)
(1.83317e-49 -2.48551e-48 0)
(-1.51762e-49 -2.13893e-48 0)
(-2.12284e-49 -3.52129e-49 0)
(-8.73876e-50 8.40341e-49 0)
(1.03455e-49 8.70475e-49 0)
(1.07771e-49 -6.14444e-49 0)
(-9.76857e-50 -6.4137e-49 0)
(-1.16373e-49 7.59911e-49 0)
(2.56495e-50 9.93196e-49 0)
(7.36358e-50 3.95804e-49 0)
(3.14441e-50 -3.75194e-50 0)
(5.76907e-51 -4.12136e-50 0)
(2.39475e-50 -1.21583e-49 0)
(7.46152e-50 -3.8681e-49 0)
(-1.01945e-49 -1.20667e-48 0)
(-2.75718e-49 9.33064e-49 0)
(-3.51638e-50 2.66709e-48 0)
(1.57289e-49 1.53279e-48 0)
(-4.64482e-50 4.8348e-49 0)
(1.01343e-50 2.19911e-48 0)
(2.22877e-49 3.49835e-49 0)
(-1.05635e-49 -9.38869e-49 0)