/*--------------------------------*- C++ -*----------------------------------*\
| =========                 |                                                 |
| \\      /  F ield         | OpenFOAM: The Open Source CFD Toolbox           |
|  \\    /   O peration     | Version:  2.4.0                                 |
|   \\  /    A nd           | Web:      www.OpenFOAM.org                      |
|    \\/     M anipulation  |                                                 |
\*---------------------------------------------------------------------------*/
FoamFile
{
    version     2.0;
    format      ascii;
    class       surfaceScalarField;
    location    "0.8";
    object      phi;
}
// * * * * * * * * * * * * * * * * * * * * * * * * * * * * * * * * * * * * * //

dimensions      [0 3 -1 0 0 0 0];

internalField   nonuniform List<scalar> 
3782
(
-3.85033e-39
3.73711e-37
-4.67688e-39
7.14671e-38
-1.38842e-39
1.38002e-38
-4.19178e-39
1.87836e-39
-3.73484e-38
-6.41354e-40
-2.80717e-37
-3.70363e-38
-2.26373e-36
-7.40555e-37
-1.08727e-35
-1.06513e-35
-8.35269e-35
-1.96632e-34
-4.0007e-34
-1.32475e-36
-2.62196e-34
6.4831e-35
-1.31876e-32
-1.12458e-35
1.34722e-32
-1.361e-34
2.86993e-34
-8.41917e-36
4.13836e-34
6.72779e-35
9.61481e-35
9.57879e-36
9.38511e-35
3.19233e-38
3.51717e-34
-8.72195e-36
-2.797e-34
-6.24862e-35
1.43319e-32
1.03034e-34
-3.18227e-32
2.34346e-34
-8.58137e-34
-7.87188e-35
-1.34594e-33
-2.34901e-34
1.51795e-32
8.33818e-35
-3.35051e-32
2.35215e-34
-8.64905e-34
-1.60816e-34
1.64128e-32
-1.77734e-34
-1.71709e-32
6.07337e-35
1.71258e-32
5.91354e-36
-1.83364e-32
-1.90852e-34
-4.86115e-34
-1.65036e-35
-5.5781e-34
-9.20478e-35
-1.16138e-34
-1.31733e-35
-1.58893e-35
-2.11627e-36
-1.49354e-35
-8.64669e-39
-1.10279e-34
2.04139e-36
-4.62483e-34
1.17481e-35
3.6471e-34
8.24741e-35
-1.88807e-32
-1.35069e-34
4.18794e-32
-3.10186e-34
1.62112e-33
9.02807e-35
1.42613e-33
2.19945e-34
3.02013e-35
2.67856e-36
-3.09301e-38
1.6457e-35
-2.23148e-37
1.07277e-34
-1.5652e-36
-8.35796e-36
4.74705e-34
4.88277e-37
-3.7049e-38
2.87554e-36
-2.66094e-37
1.69196e-35
-1.85008e-36
-9.8021e-36
7.01946e-35
8.80268e-38
-7.19986e-39
4.64355e-37
-5.11165e-38
2.35521e-36
-3.37948e-37
-1.69593e-36
7.14666e-36
1.10684e-38
2.31258e-40
5.40789e-38
-7.03992e-39
2.4314e-37
-5.9261e-38
-2.82384e-37
5.60736e-37
6.11468e-40
1.4044e-38
5.56702e-39
2.05711e-38
2.57112e-38
-2.25057e-39
-3.33265e-38
4.42709e-38
-2.42569e-38
8.18811e-38
-1.00731e-38
1.36509e-37
-2.06048e-39
3.12755e-38
2.33425e-39
2.41202e-39
-4.59454e-37
4.94475e-37
-1.3895e-37
8.96977e-37
-4.46065e-38
1.84052e-37
3.4684e-38
-8.92889e-39
-6.31247e-36
-1.46523e-36
-1.38133e-36
4.20074e-37
-3.24629e-37
1.04678e-37
2.24466e-38
-5.74534e-38
-1.23512e-35
-1.67897e-35
-9.30006e-36
-3.57781e-36
-2.03821e-36
-5.22901e-37
-7.63825e-38
-3.25899e-37
4.65134e-36
-7.2866e-35
1.11594e-36
-9.82317e-36
1.63889e-37
-1.01382e-36
-1.02722e-37
1.86637e-38
7.42611e-35
-4.49881e-34
1.45009e-35
-4.29491e-35
2.67179e-36
-3.05137e-36
-1.39636e-37
3.91778e-37
-1.3168e-35
-3.82882e-34
-2.97182e-36
-3.5461e-35
-5.84077e-37
-2.44315e-36
-1.02739e-37
-9.13796e-38
-1.55274e-34
4.11407e-34
-3.06159e-35
3.82726e-35
-5.70641e-36
2.65181e-36
1.13467e-37
-8.46002e-37
-9.95439e-36
4.62031e-34
-2.32534e-36
4.41125e-35
-4.60512e-37
3.12638e-36
1.40488e-37
-7.25952e-38
7.66822e-35
7.44899e-35
1.50423e-35
9.22289e-36
2.79289e-36
8.62081e-37
7.10108e-38
4.12509e-37
1.12619e-35
1.8573e-35
2.56676e-36
3.20261e-36
5.02566e-37
4.22751e-37
5.42774e-38
7.83867e-38
4.24655e-38
1.78102e-35
1.47951e-38
3.00491e-36
3.94131e-39
3.87769e-37
4.88068e-38
7.75877e-40
-1.02195e-35
6.16793e-35
-2.29295e-36
6.50203e-36
-4.39382e-37
4.51483e-37
1.24692e-38
-6.73087e-38
-7.0688e-35
4.12958e-34
-1.33119e-35
3.52501e-35
-2.42323e-36
2.02199e-36
1.12916e-38
-3.50416e-37
1.18356e-34
-1.91029e-34
2.41741e-35
-2.32994e-35
4.56716e-36
-2.16137e-36
-1.76957e-37
6.86916e-37
2.67282e-34
-1.55402e-33
5.26183e-35
-1.48798e-34
9.79646e-36
-1.0701e-35
-5.15434e-37
1.45082e-36
-8.97075e-35
-1.10271e-33
-1.75815e-35
-1.08597e-34
-3.26074e-36
-8.16012e-36
-4.50884e-37
-4.81085e-37
-2.67694e-34
2.51006e-34
-5.2468e-35
1.32933e-35
-9.73935e-36
-2.2921e-37
-2.02521e-37
-1.43813e-36
9.50009e-35
-2.24516e-34
1.85975e-35
-2.85876e-35
3.44551e-36
-2.81402e-36
-2.55674e-37
5.07898e-37
2.67706e-34
-1.58298e-33
5.2111e-35
-1.50537e-34
9.65011e-36
-1.07897e-35
-5.20282e-37
1.42109e-36
-1.83063e-34
-6.44268e-34
-3.56726e-35
-6.43722e-35
-6.61963e-36
-4.85807e-36
-2.65001e-37
-9.76685e-37
-2.03086e-34
3.87755e-34
-4.04025e-35
3.15364e-35
-7.55331e-36
1.68358e-36
-9.47857e-39
-1.12365e-36
6.89947e-35
3.02102e-35
1.26535e-35
1.95875e-36
2.26661e-36
-7.69638e-38
-4.16458e-38
3.21991e-37
1.58173e-35
-8.57021e-35
3.64032e-36
-9.10059e-36
6.21538e-37
-6.73533e-37
-2.23758e-38
8.54868e-38
8.63498e-35
-6.37499e-34
7.12677e-36
-6.33832e-35
8.84174e-37
-4.83866e-36
-2.86444e-37
9.60084e-38
-1.04512e-35
-6.32587e-34
-2.25736e-36
-6.32407e-35
-5.17799e-37
-4.87702e-36
-2.97768e-37
-9.02739e-38
-1.04468e-34
-1.00987e-34
-2.06737e-35
-1.28493e-35
-3.88074e-36
-1.25318e-36
-1.12519e-37
-5.79084e-37
-1.54748e-35
-2.22788e-35
-3.54914e-36
-3.8453e-36
-7.01794e-37
-5.08071e-37
-6.56492e-38
-1.10431e-37
-2.51833e-36
-3.43077e-36
-6.06503e-37
-6.76588e-37
-1.27828e-37
-1.00791e-37
-1.42934e-38
-2.10804e-38
-1.09563e-38
-3.19723e-36
-3.33388e-39
-6.15221e-37
-9.11143e-40
-8.97724e-38
-1.2466e-38
-1.81498e-40
2.42294e-36
-2.05993e-35
5.75826e-37
-3.40607e-36
1.19654e-37
-4.30026e-37
-5.30539e-38
1.94763e-38
1.37739e-35
-8.1021e-35
3.09944e-36
-8.50355e-36
5.96048e-37
-5.83662e-37
-1.46335e-38
9.16058e-38
9.33059e-35
-5.44764e-34
1.7578e-35
-4.64901e-35
3.20042e-36
-2.66274e-36
-1.38407e-38
4.62899e-37
-1.55173e-34
2.48027e-34
-3.17118e-35
3.05843e-35
-5.99368e-36
2.87569e-36
2.40996e-37
-9.0183e-37
-3.53885e-34
2.05833e-33
-6.97757e-35
1.98599e-34
-1.30045e-35
1.44783e-35
7.31597e-37
-1.92787e-36
1.02464e-34
1.53426e-33
1.96473e-35
1.51755e-34
3.62048e-36
1.13584e-35
6.11189e-37
5.30132e-37
2.51327e-34
2.59644e-34
4.99719e-35
3.34308e-35
9.34119e-36
3.29115e-36
2.95836e-37
1.38938e-36
3.55589e-35
8.19148e-36
1.62765e-36
2.5732e-37
6.43011e-34
-5.1948e-35
1.19128e-32
-3.72751e-35
1.33525e-35
9.92018e-35
-1.18108e-32
9.79348e-35
-1.35777e-34
-4.59792e-35
2.49101e-34
-1.05355e-34
1.23096e-32
-5.45068e-35
7.19528e-34
4.45572e-35
4.94946e-34
5.32236e-35
9.97602e-35
8.68405e-36
1.32487e-35
1.44207e-36
1.49618e-36
1.82228e-37
-3.4026e-36
6.31636e-38
-2.46678e-35
3.36297e-37
-1.86425e-34
2.70772e-36
-8.91778e-34
1.59455e-35
-9.55066e-34
9.79148e-35
-2.39827e-32
3.71151e-35
1.14395e-32
-1.46644e-34
4.73357e-34
-1.14212e-34
1.27171e-32
-9.72047e-36
9.05316e-34
5.57745e-35
1.00381e-33
5.42253e-35
8.34817e-34
-3.91366e-35
1.24212e-32
-4.40426e-35
7.33985e-34
4.66079e-35
4.97249e-34
5.83947e-35
1.01765e-34
1.17257e-35
1.72838e-35
-1.62165e-36
2.78082e-35
-5.14697e-36
1.98717e-34
-3.2239e-36
9.84554e-34
-1.65362e-35
1.38868e-33
-9.60904e-35
2.44911e-32
7.36164e-35
1.52484e-33
1.40859e-34
-1.09431e-32
6.95706e-35
2.28188e-32
-5.26685e-36
-2.38082e-32
1.38412e-34
-8.43737e-34
3.35253e-36
-7.70791e-35
3.8369e-34
-5.96574e-35
6.05192e-34
-4.24606e-35
2.33741e-36
1.13836e-34
-5.89057e-34
1.12341e-34
-3.09741e-34
-5.26745e-35
3.27855e-34
-1.21038e-34
6.63135e-34
-6.26786e-35
3.96958e-34
5.09937e-35
7.33783e-35
6.11631e-35
1.57353e-35
1.01905e-35
2.31789e-36
1.70476e-36
2.68713e-37
2.17414e-37
-6.15676e-37
7.56757e-38
-4.30386e-36
4.01048e-37
-2.91818e-35
3.1991e-36
-1.31318e-34
1.86996e-35
-7.22435e-34
1.12317e-34
-9.42095e-34
4.22692e-35
-4.61857e-35
-1.68242e-34
6.51254e-34
-1.31461e-34
7.22206e-34
-1.18444e-35
4.25406e-34
5.86862e-35
1.49811e-34
5.8035e-35
4.16125e-34
-5.00793e-35
6.80953e-34
-5.08363e-35
3.98916e-34
5.29917e-35
7.39052e-35
6.22129e-35
1.73414e-35
1.48938e-35
3.15335e-36
-3.02488e-36
4.25183e-36
-1.02235e-36
3.10867e-35
-3.43155e-36
1.44953e-34
-1.98123e-35
7.85994e-34
-1.15853e-34
1.31081e-33
-8.94572e-35
5.15049e-34
1.55363e-34
1.19362e-34
7.44824e-35
1.91936e-34
-9.22918e-36
-6.24234e-34
1.5357e-34
-6.59596e-34
8.54614e-36
-8.46234e-35
2.76383e-35
-8.97694e-36
4.08433e-35
-6.02118e-36
3.80945e-37
1.7045e-35
-3.85471e-35
1.67735e-35
-2.00324e-35
-7.79389e-36
2.26417e-35
-1.82713e-35
4.61698e-35
-9.52663e-36
2.94489e-35
7.48684e-36
7.49558e-36
9.25131e-36
2.22056e-36
1.76867e-36
3.76768e-37
3.11829e-37
4.78748e-38
4.21234e-38
-1.10833e-37
1.50868e-38
-6.93635e-37
7.74595e-38
-4.06985e-36
5.82968e-37
-1.28238e-35
3.23014e-36
-5.1702e-35
1.67687e-35
-6.46199e-35
5.98367e-36
-3.74277e-36
-2.51557e-35
4.45628e-35
-2.00835e-35
5.16856e-35
-2.0622e-36
3.34103e-35
8.81897e-36
1.5477e-35
8.83146e-36
3.22221e-35
-7.29892e-36
4.87257e-35
-7.44607e-36
2.97851e-35
7.86403e-36
7.59088e-36
9.45684e-36
2.46434e-36
2.6685e-36
5.25197e-37
-5.93192e-37
6.88285e-37
-1.99325e-37
4.25172e-36
-6.31385e-37
1.39685e-35
-3.4129e-36
5.72862e-35
-1.74036e-35
9.35375e-35
-8.61618e-36
4.12258e-35
2.29244e-35
1.13431e-35
1.16345e-35
1.17808e-35
-1.6041e-37
-4.37557e-35
2.26785e-35
-4.79789e-35
1.49461e-36
-1.21307e-35
1.44748e-36
-1.41272e-36
1.94817e-36
-9.28609e-37
4.47482e-38
2.6862e-36
-1.70659e-36
2.63827e-36
-8.41368e-37
-1.22368e-36
1.11896e-36
-2.88465e-36
2.31473e-36
-1.5112e-36
1.63092e-36
1.16918e-36
5.92096e-37
1.46255e-36
2.31824e-37
2.94172e-37
4.41697e-38
5.5427e-38
5.94553e-39
7.86466e-39
-1.38842e-38
2.92881e-39
-8.08193e-38
1.44014e-38
-4.20195e-37
1.03275e-37
-9.59003e-37
5.33813e-37
-2.70413e-36
2.63734e-36
-3.17183e-36
9.21761e-37
-2.08751e-37
-3.96627e-36
2.15268e-36
-3.18702e-36
2.69783e-36
-3.47119e-37
2.03408e-36
1.3781e-36
1.24546e-36
1.34866e-36
1.93299e-36
-1.14343e-36
2.58585e-36
-1.1624e-36
1.66704e-36
1.23591e-36
6.0503e-37
1.49247e-36
2.69437e-37
4.02815e-37
6.35363e-38
-5.41945e-38
7.56112e-38
-2.84906e-38
4.32308e-37
-1.09791e-37
1.03606e-36
-5.55535e-37
3.07669e-36
-2.70508e-36
4.96313e-36
-1.13682e-36
2.52068e-36
3.63546e-36
8.17123e-37
1.86914e-36
5.37604e-37
-3.5196e-39
-2.25635e-36
3.56359e-36
-2.66541e-36
2.73926e-37
-1.8409e-36
4.21803e-38
-1.62088e-37
3.16026e-38
-1.03788e-37
5.3155e-39
3.08545e-37
-5.1294e-39
3.02449e-37
6.90864e-39
-1.39852e-37
2.37584e-38
-3.3229e-37
5.451e-38
-1.74883e-37
6.16724e-38
1.32889e-37
4.73531e-38
1.68692e-37
2.52188e-38
3.5914e-38
5.23636e-39
7.09035e-39
7.41321e-40
1.04977e-39
-1.7432e-39
4.02092e-40
-9.52734e-39
1.916e-39
-4.52939e-38
1.31711e-38
-7.03172e-38
6.48602e-38
-7.99847e-38
3.02321e-37
-6.5521e-38
1.02905e-37
-6.37165e-39
-4.55612e-37
3.74458e-38
-3.69279e-37
7.94035e-38
-4.25642e-38
1.05019e-37
1.58301e-37
1.01897e-37
1.57169e-37
9.51912e-38
-1.29186e-37
8.4362e-38
-1.31843e-37
6.60985e-38
1.41601e-37
4.89768e-38
1.72838e-37
2.95735e-38
5.07923e-38
7.63364e-39
-7.91928e-39
8.84596e-39
-3.9247e-39
4.55073e-38
-1.39891e-38
7.20893e-38
-6.68e-38
9.92282e-38
-3.07604e-37
1.66482e-37
-1.18826e-37
1.31404e-37
4.18664e-37
5.69347e-38
2.20257e-37
9.4994e-39
1.103e-38
-6.67337e-38
4.08164e-37
-1.08528e-37
3.4845e-38
-2.08052e-37
-1.31909e-39
-1.78583e-38
-4.94375e-39
-1.17876e-38
5.44777e-40
3.59619e-38
7.50027e-39
3.51882e-38
5.0654e-39
-1.6256e-38
-2.05376e-39
-3.87511e-38
-3.52655e-39
-2.04647e-38
7.34454e-40
1.53837e-38
3.75656e-39
1.96913e-38
2.4486e-39
4.32223e-39
5.39518e-40
8.893e-40
7.87327e-41
1.35949e-40
-1.86179e-40
5.33844e-41
-9.7796e-40
2.47397e-40
-4.36779e-39
1.64808e-39
-5.15289e-39
7.7714e-39
1.88211e-39
3.51697e-38
6.07185e-39
1.18002e-38
1.69118e-40
-5.31095e-38
-5.15062e-39
-4.32128e-38
-1.96763e-39
-5.15869e-39
4.87585e-39
1.83591e-38
8.27965e-39
1.81704e-38
4.07172e-39
-1.49487e-38
-6.00332e-40
-1.52507e-38
1.17296e-39
1.64792e-38
3.93677e-39
2.01872e-38
2.95188e-39
5.96577e-39
7.99355e-40
-7.71166e-40
8.72662e-40
-4.62885e-40
4.30298e-39
-1.72522e-39
4.93498e-39
-7.8571e-39
-1.07524e-39
-3.51783e-38
-4.31132e-40
-1.07527e-38
6.20675e-39
4.93232e-38
3.97229e-39
2.61066e-38
-1.03161e-39
1.7299e-39
1.50978e-39
4.75419e-38
-2.48318e-39
4.43204e-39
-2.38288e-38
-1.90284e-39
3.32332e-39
-1.06369e-39
-5.43061e-40
2.87296e-41
3.69414e-39
1.10461e-39
3.55036e-39
7.02671e-40
-1.63374e-39
-4.03342e-40
-3.91277e-39
-7.54972e-40
-2.07289e-39
-1.72193e-40
1.54072e-39
3.29874e-40
1.99002e-39
2.41961e-40
4.50941e-40
5.52004e-41
9.56375e-41
8.23314e-42
1.50237e-41
-1.95486e-41
6.01195e-42
-9.97818e-41
2.72754e-41
-4.29797e-40
1.76872e-40
-4.27046e-40
8.0807e-40
6.33218e-40
3.54111e-39
1.17132e-39
1.16876e-39
5.49635e-41
-5.35642e-39
-9.13219e-40
-4.37901e-39
-6.41108e-40
-5.39749e-40
2.34843e-40
1.85082e-39
7.37778e-40
1.85285e-39
1.60524e-40
-1.48989e-39
-4.64222e-40
-1.52472e-39
-1.26494e-40
1.66017e-39
3.48837e-40
2.04654e-39
2.92875e-40
6.36736e-40
8.21793e-41
-9.20132e-41
8.77683e-41
-5.24497e-41
4.13825e-40
-1.8411e-40
3.61909e-40
-8.04598e-40
-6.24759e-40
-3.49134e-39
-7.85264e-40
-8.62484e-40
3.31681e-40
5.01629e-39
3.23889e-40
2.68305e-39
-1.86984e-40
2.60943e-40
5.12445e-40
4.79193e-39
1.23994e-40
4.7646e-40
-2.38347e-39
-8.5732e-39
3.28069e-39
-1.18329e-39
3.20558e-40
-1.2896e-40
4.10383e-40
9.77736e-41
3.58675e-40
6.9027e-41
-1.62457e-40
-4.33653e-41
-3.91015e-40
-8.21359e-41
-2.0766e-40
-2.40046e-41
1.53172e-40
2.84027e-41
1.99019e-40
2.20103e-41
4.60253e-41
5.15331e-42
1.00039e-41
7.79701e-43
1.60361e-42
-1.8578e-42
6.51649e-43
-9.29693e-42
2.90565e-42
-3.89708e-41
1.84722e-41
-3.56735e-41
8.22444e-41
7.26087e-41
3.53287e-40
1.25315e-40
1.15369e-40
6.37868e-42
-5.3516e-40
-9.6406e-41
-4.38713e-40
-7.34974e-41
-5.53052e-41
1.26978e-41
1.84404e-40
6.42337e-41
1.84817e-40
6.6682e-42
-1.47912e-40
-5.55498e-41
-1.51452e-40
-1.98326e-41
1.65714e-40
3.02486e-41
2.04886e-40
2.70689e-41
6.45657e-41
7.73122e-42
-8.73163e-42
7.90701e-42
-5.38487e-42
3.6761e-41
-1.8974e-41
2.68616e-41
-8.02421e-41
-7.53398e-41
-3.41578e-40
-9.49447e-41
-5.57665e-41
2.14416e-41
5.07344e-40
2.71249e-41
2.71966e-40
-1.90751e-41
3.0173e-41
5.89209e-41
4.78667e-40
2.35245e-41
5.01534e-41
-2.35727e-40
-4.63558e-38
-9.95032e-39
-5.67109e-39
-1.10524e-39
-6.75761e-40
-7.89187e-41
-6.27331e-41
2.10881e-41
-1.11892e-42
-1.58993e-41
-4.82521e-42
-3.58362e-41
-7.86422e-42
-1.90284e-41
-2.43655e-42
1.39211e-41
2.48406e-42
1.81999e-41
1.9732e-42
4.29542e-42
4.69807e-43
9.51468e-43
7.18585e-44
1.55224e-43
-1.71674e-43
6.38552e-44
-8.46289e-43
2.80802e-43
-3.48633e-42
1.75445e-42
-3.07699e-42
7.65873e-42
7.00089e-42
3.22272e-41
1.18328e-41
1.04054e-41
6.20875e-43
-4.88768e-41
-9.06668e-42
-4.01924e-41
-7.08033e-42
-5.16942e-42
8.49169e-43
1.68408e-41
5.64632e-42
1.70232e-41
3.34003e-43
-1.33908e-41
-5.40489e-42
-1.37457e-41
-2.0475e-42
1.51267e-41
2.65607e-42
1.8782e-41
2.4353e-42
6.12393e-42
7.06022e-43
-8.95611e-43
7.04808e-43
-5.31241e-43
3.21363e-42
-1.78721e-42
1.98956e-42
-7.3366e-42
-7.52271e-42
-3.06026e-41
-9.10432e-42
-2.78387e-42
1.82496e-42
4.68418e-41
2.39867e-42
2.52205e-41
-1.75422e-42
3.31715e-42
5.66915e-42
4.37152e-41
2.50784e-42
4.76844e-42
-2.14244e-41
9.09742e-40
-1.03471e-38
-3.67675e-41
-1.00029e-39
-2.16609e-41
-9.47443e-41
-2.87977e-42
-6.83802e-42
2.49522e-44
-2.24519e-42
-4.09224e-43
-3.27854e-42
-6.71953e-43
-1.70979e-42
-2.12845e-43
1.23837e-42
2.05897e-43
1.62689e-42
1.65699e-43
3.89564e-43
4.00398e-44
8.76136e-44
6.17383e-45
1.44871e-44
-1.47849e-44
6.0189e-45
-7.20402e-44
2.61726e-44
-2.92207e-43
1.61381e-43
-2.53183e-43
6.93343e-43
6.01116e-43
2.87574e-42
1.00794e-42
9.20943e-43
5.38086e-44
-4.3658e-42
-7.71688e-43
-3.59764e-42
-6.08795e-43
-4.69818e-43
6.15806e-44
1.50226e-42
4.7044e-43
1.52227e-42
2.2011e-44
-1.18965e-42
-4.63995e-43
-1.22232e-42
-1.80099e-43
1.35042e-42
2.2099e-43
1.6809e-42
2.06792e-43
5.5548e-43
6.04076e-44
-7.99942e-44
5.80366e-44
-4.88079e-44
2.6339e-43
-1.62273e-43
1.40303e-43
-6.49904e-43
-6.6288e-43
-2.6729e-42
-7.68688e-43
-5.08458e-45
1.60796e-43
4.23847e-42
2.02224e-43
2.28181e-42
-1.44441e-43
3.25735e-43
4.87533e-43
3.90467e-42
2.20956e-43
4.40287e-43
-1.90177e-42
4.67585e-38
8.23279e-40
5.04415e-39
9.59222e-40
5.21007e-40
1.26392e-40
5.03404e-41
1.31605e-41
4.71218e-42
1.06419e-42
3.82331e-43
-1.66642e-43
-1.98107e-44
-1.34622e-43
-1.47794e-44
1.0405e-43
1.69636e-44
1.36427e-43
1.35844e-44
3.31222e-44
3.31572e-45
7.54023e-45
5.14466e-46
1.26175e-45
-1.23413e-45
5.28514e-46
-5.95768e-45
2.27691e-45
-2.38909e-44
1.38748e-44
-2.04953e-44
5.88569e-44
4.95624e-44
2.40629e-43
8.28085e-44
7.64197e-44
4.46816e-45
-3.65624e-43
-6.33845e-44
-3.01963e-43
-5.02115e-44
-3.99692e-44
4.7339e-45
1.25849e-43
3.83413e-44
1.28372e-43
1.64793e-45
-9.89529e-44
-3.8188e-44
-1.01887e-43
-1.49601e-44
1.13064e-43
1.80046e-44
1.41178e-43
1.70035e-44
4.7813e-44
5.0028e-45
-7.29879e-45
4.67373e-45
-4.31744e-45
2.101e-44
-1.38115e-44
9.27603e-45
-5.40424e-44
-5.62044e-44
-2.19058e-43
-6.18511e-44
1.79945e-44
1.46654e-44
3.59294e-43
1.68865e-44
1.93618e-43
-1.15696e-44
3.04939e-44
4.01832e-44
3.27048e-43
1.83598e-44
3.78696e-44
-1.58795e-43
-1.14213e-38
2.19325e-39
-1.28754e-39
9.45755e-40
-1.37941e-40
1.1923e-40
-1.3774e-41
1.21654e-41
-1.31639e-42
1.09962e-42
-1.21932e-43
7.41921e-44
-1.47101e-44
-3.75943e-45
-2.25093e-45
9.03168e-45
1.22366e-45
1.11696e-44
1.04953e-45
2.73353e-45
2.59969e-46
6.2797e-46
4.05858e-47
1.06057e-46
-9.76182e-47
4.47146e-47
-4.67652e-46
1.9118e-46
-1.8552e-45
1.15421e-45
-1.5791e-45
4.84573e-45
3.86141e-45
1.95963e-44
6.43643e-45
6.18339e-45
3.50432e-46
-2.9797e-44
-4.92789e-45
-2.46498e-44
-3.91746e-45
-3.29811e-45
3.51744e-46
1.02518e-44
2.97427e-45
1.04881e-44
1.30133e-46
-8.0266e-45
-2.96734e-45
-8.27396e-45
-1.17239e-45
9.21149e-45
1.39549e-45
1.15263e-44
1.33394e-45
3.95391e-45
3.93753e-46
-6.08035e-46
3.54344e-46
-3.61312e-46
1.59154e-45
-1.13395e-45
5.6364e-46
-4.34759e-45
-4.49017e-45
-1.74286e-44
-4.70199e-45
3.12529e-45
1.25623e-45
2.96745e-44
1.33755e-45
1.59645e-44
-8.71988e-46
2.66302e-45
3.13649e-45
2.66551e-44
1.43189e-45
3.15623e-45
-1.28915e-44
-1.02289e-37
-2.05965e-39
-1.11658e-38
-9.94286e-40
-1.16807e-39
-1.26659e-40
-1.14053e-40
-1.29795e-41
-1.07216e-41
-1.19101e-42
-9.55466e-43
-1.05244e-43
-8.24667e-44
-9.46452e-45
-6.86214e-45
-3.38618e-47
-4.4037e-46
8.10126e-46
3.85772e-47
2.10031e-46
1.67901e-47
4.93155e-47
2.88949e-48
8.43012e-48
-7.49948e-48
3.5817e-48
-3.56333e-47
1.52222e-47
-1.40153e-46
9.1132e-47
-1.18602e-46
3.79366e-46
2.92187e-46
1.51791e-45
4.86242e-46
4.75894e-46
2.66599e-47
-2.30948e-45
-3.72344e-46
-1.91378e-45
-2.96626e-46
-2.58514e-46
2.58914e-47
7.95057e-46
2.24455e-46
8.17779e-46
9.99524e-48
-6.18693e-46
-2.24023e-46
-6.38961e-46
-8.89464e-47
7.13876e-46
1.05273e-46
8.95495e-46
1.0136e-46
3.1305e-46
3.00133e-47
-5.04261e-47
2.61678e-47
-2.91874e-47
1.17055e-46
-8.85133e-47
3.01188e-47
-3.32728e-46
-3.4892e-46
-1.31894e-45
-3.46146e-46
3.63714e-46
1.05417e-46
2.32982e-45
1.03584e-46
1.25201e-45
-6.41881e-47
2.22842e-46
2.37495e-46
2.06636e-45
1.08354e-46
2.49226e-46
-9.97449e-46
-9.08002e-39
-1.42411e-39
-1.02459e-39
-1.06909e-39
-1.09578e-40
-1.39751e-40
-1.09291e-41
-1.44331e-41
-1.04383e-42
-1.32785e-42
-9.44271e-44
-1.15815e-43
-8.24022e-45
-9.64026e-45
-6.91263e-46
-7.1601e-46
-4.78939e-47
6.24972e-48
1.53809e-48
1.1881e-47
1.13235e-48
3.47934e-48
2.0492e-49
6.28907e-49
-5.50932e-49
2.75807e-49
-2.60186e-48
1.17189e-48
-1.01509e-47
6.96871e-48
-8.54261e-48
2.88086e-47
2.11854e-47
1.1429e-46
3.52032e-47
3.56454e-47
1.94269e-48
-1.73981e-46
-2.69662e-47
-1.44367e-46
-2.15353e-47
-1.96553e-47
1.82175e-48
5.99026e-47
1.62518e-47
6.18059e-47
7.53302e-49
-4.6416e-47
-1.62054e-47
-4.79961e-47
-6.47353e-48
5.37703e-47
7.61699e-48
6.75755e-47
7.40427e-48
2.39054e-47
2.194e-48
-3.91899e-48
1.84099e-48
-2.25307e-48
8.2491e-48
-6.67744e-48
1.31148e-48
-2.46511e-47
-2.59357e-47
-9.68213e-47
-2.44257e-47
3.71646e-47
8.36089e-48
1.77921e-46
7.6743e-48
9.53493e-47
-4.51141e-48
1.77195e-47
1.72551e-47
1.55687e-46
7.84814e-48
1.9076e-47
-7.49709e-47
4.97121e-38
5.46944e-39
5.41151e-39
3.93216e-40
5.64789e-40
3.10353e-41
5.50363e-41
2.64266e-42
5.16508e-42
2.25212e-43
4.5951e-43
1.89857e-44
3.94607e-44
1.53914e-45
3.24207e-45
1.25501e-46
2.58301e-46
1.39866e-47
2.01449e-47
1.87158e-48
1.56836e-48
3.2727e-49
1.21474e-49
5.14367e-50
-3.17822e-50
2.07671e-50
-1.8405e-49
8.64263e-50
-7.15202e-49
5.10635e-49
-5.99158e-49
2.09879e-48
1.49394e-48
8.25814e-48
2.47943e-48
2.56247e-48
1.37574e-49
-1.25769e-47
-1.89974e-48
-1.04502e-47
-1.51987e-48
-1.43274e-48
1.25625e-49
4.33375e-48
1.14452e-48
4.49198e-48
5.45016e-50
-3.33983e-48
-1.14055e-48
-3.45948e-48
-4.57593e-49
3.88691e-48
5.36197e-49
4.8949e-48
5.24725e-49
1.75842e-48
1.55571e-49
-2.99668e-49
1.26015e-49
-1.68324e-49
5.64492e-49
-4.83166e-49
2.85693e-50
-1.75209e-48
-1.87642e-48
-6.81788e-48
-1.67273e-48
3.37101e-48
6.45023e-49
1.30346e-47
5.54522e-49
6.96804e-48
-3.09375e-49
1.35656e-48
1.21836e-48
1.1257e-47
5.53018e-49
1.39768e-48
-5.41479e-48
9.72893e-39
6.48921e-39
1.09063e-39
6.58474e-40
1.16051e-40
6.35637e-41
1.15242e-41
5.96773e-42
1.09682e-42
5.32398e-43
9.88993e-44
4.59213e-44
8.58499e-45
3.78788e-45
7.12627e-46
3.02671e-46
5.71803e-47
2.35658e-47
4.4382e-48
1.81514e-48
3.36808e-49
1.44518e-49
2.49544e-50
1.21671e-50
-1.01238e-51
2.06619e-51
-1.25113e-50
6.21343e-51
-4.86158e-50
3.63011e-50
-4.05512e-50
1.4849e-49
1.01633e-49
5.80274e-49
1.68479e-49
1.79283e-49
9.39571e-51
-8.8408e-49
-1.29132e-49
-7.35417e-49
-1.03524e-49
-1.01422e-49
8.33034e-51
3.04794e-49
7.78025e-50
3.16907e-49
3.84167e-51
-2.339e-49
-7.74442e-50
-2.42596e-49
-3.12326e-50
2.73211e-49
3.64267e-50
3.44631e-49
3.59382e-50
1.25168e-49
1.0644e-50
-2.18023e-50
8.28049e-51
-1.20989e-50
3.72362e-50
-3.38647e-50
-2.31747e-51
-1.20731e-49
-1.30815e-49
-4.66004e-49
-1.10498e-49
2.87278e-49
4.75463e-50
9.28999e-49
3.86019e-50
4.94869e-49
-2.04145e-50
9.96655e-50
8.30641e-50
7.91431e-49
3.75768e-50
9.93987e-50
-3.80172e-49
1.16406e-40
5.73968e-39
1.48999e-41
5.76128e-40
1.75919e-42
5.51811e-41
1.8919e-43
5.15342e-42
1.91876e-44
4.57731e-43
1.82152e-45
3.93463e-44
1.64884e-46
3.23567e-45
1.41748e-47
2.5766e-46
1.17263e-48
1.97695e-47
9.4441e-50
1.47402e-48
7.53847e-51
1.06942e-49
5.94585e-52
7.61735e-51
-1.42212e-52
6.02499e-52
-8.37664e-52
4.58322e-52
-3.2185e-51
2.49049e-51
-2.6741e-51
1.01395e-50
6.73156e-51
3.93637e-50
1.1148e-50
1.21113e-50
6.24435e-52
-5.99929e-50
-8.54682e-51
-4.99601e-50
-6.86315e-51
-6.92614e-51
5.40376e-52
2.07029e-50
5.14916e-51
2.16123e-50
2.61205e-52
-1.58088e-50
-5.12116e-51
-1.6423e-50
-2.07378e-51
1.85405e-50
2.40972e-51
2.34285e-50
2.3924e-51
8.62016e-51
7.07715e-52
-1.55275e-51
5.29418e-52
-8.43714e-52
2.38732e-51
-2.29006e-51
-4.44036e-52
-8.0261e-51
-8.88232e-51
-3.07261e-50
-7.09293e-51
2.28562e-50
3.40699e-51
6.39076e-50
2.62035e-51
3.39269e-50
-1.31403e-51
7.07815e-51
5.51097e-51
5.37186e-50
2.48652e-51
6.81285e-51
-2.57915e-50
-8.19297e-39
-1.98708e-39
-9.05515e-40
-3.89355e-40
-9.51177e-41
-4.57379e-41
-9.35204e-42
-4.62341e-42
-8.82447e-43
-4.25982e-43
-7.90232e-44
-3.7342e-44
-6.81947e-45
-3.11412e-45
-5.63369e-46
-2.50592e-46
-4.49905e-47
-1.93861e-47
-3.46036e-48
-1.45268e-48
-2.57967e-49
-1.05168e-49
-1.86041e-50
-7.3896e-51
-1.31573e-51
-4.98616e-52
-1.42898e-52
-5.13309e-54
-2.12369e-52
1.63625e-52
-1.71304e-52
6.73272e-52
4.32057e-52
2.59967e-51
7.14876e-52
7.96974e-52
4.02064e-53
-3.9632e-51
-5.48257e-52
-3.3036e-51
-4.41048e-52
-4.60044e-52
3.38946e-53
1.36873e-51
3.30372e-52
1.43322e-51
1.73038e-53
-1.04083e-51
-3.28198e-52
-1.08271e-51
-1.33516e-52
1.22482e-51
1.54518e-52
1.55005e-51
1.54507e-52
5.76121e-52
4.56014e-53
-1.06217e-52
3.26606e-53
-5.68856e-53
1.48155e-52
-1.50339e-52
-4.69755e-53
-5.18167e-52
-5.83981e-52
-1.96878e-51
-4.40972e-52
1.7394e-51
2.35019e-52
4.28111e-51
1.72216e-52
2.26339e-51
-8.18054e-53
4.85372e-52
3.54531e-52
3.54941e-51
1.59406e-52
4.53999e-52
-1.70307e-51
-4.16294e-38
-1.56973e-38
-4.46958e-39
-2.44824e-39
-4.61721e-40
-2.69559e-40
-4.4558e-41
-2.64773e-41
-4.14961e-42
-2.39548e-42
-3.66511e-43
-2.07451e-43
-3.12879e-44
-1.71205e-44
-2.55658e-45
-1.36615e-45
-2.02295e-46
-1.04874e-46
-1.54183e-47
-7.80779e-48
-1.14034e-48
-5.6206e-49
-8.16067e-50
-3.93256e-50
-5.67934e-51
-2.66983e-51
-3.87057e-52
-1.74724e-52
-3.81657e-53
-6.60507e-55
-1.22739e-53
4.26373e-53
2.69356e-53
1.66414e-52
4.46889e-53
5.08507e-53
2.52249e-54
-2.53826e-52
-3.42877e-53
-2.1178e-52
-2.76249e-53
-2.96088e-53
2.07934e-54
8.77558e-53
2.06638e-53
9.22235e-53
1.11072e-54
-6.64246e-53
-2.05083e-53
-6.92045e-53
-8.37546e-54
7.84508e-53
9.66003e-54
9.94366e-53
9.71664e-54
3.73779e-53
2.86071e-54
-7.09931e-54
1.96143e-54
-3.72918e-54
8.94668e-54
-9.56251e-54
-4.12203e-54
-3.24036e-53
-3.74345e-53
-1.22172e-52
-2.66748e-53
1.26009e-52
1.5773e-53
2.7801e-52
1.10439e-53
1.46384e-52
-4.97e-54
3.22789e-53
2.22274e-53
2.2738e-52
9.96378e-54
2.92966e-53
-1.09098e-52
8.37254e-38
-1.35799e-38
9.2141e-39
-9.75077e-40
9.69158e-40
-7.71297e-41
9.51373e-41
-6.58875e-42
8.97943e-42
-5.63616e-43
8.03128e-43
-4.76884e-44
6.92723e-44
-3.88852e-45
5.71526e-45
-3.07994e-46
4.55959e-46
-2.35002e-47
3.50191e-47
-1.74081e-48
2.60734e-48
-1.24728e-49
1.87758e-49
-8.69059e-51
1.31374e-50
-5.87729e-52
8.91975e-52
-3.86084e-53
5.82075e-53
-1.81076e-54
3.15025e-54
2.56338e-54
1.88322e-54
1.03809e-53
2.7317e-54
3.164e-54
1.5476e-55
-1.58473e-53
-2.08506e-54
-1.32332e-53
-1.68264e-54
-1.85649e-54
1.23849e-55
5.48424e-54
1.25699e-54
5.78055e-54
6.95343e-56
-4.13429e-54
-1.2461e-54
-4.31315e-54
-5.11034e-55
4.89827e-54
5.87296e-55
6.2171e-54
5.94541e-55
2.35903e-54
1.74476e-55
-4.58588e-55
1.14056e-55
-2.37233e-55
5.24512e-55
-5.91673e-55
-3.22549e-55
-1.97112e-54
-2.33172e-54
-7.377e-54
-1.56734e-54
8.80278e-54
1.02435e-54
1.76025e-53
6.88166e-55
9.22632e-54
-2.93114e-55
2.08146e-54
1.35547e-54
1.41993e-53
6.05422e-55
1.84119e-54
-6.81215e-54
1.75254e-37
-1.98409e-39
1.91157e-38
2.81227e-39
1.99839e-39
3.89846e-40
1.95013e-40
4.08089e-41
1.83235e-41
3.76578e-42
1.63185e-42
3.28181e-43
1.40265e-43
2.71351e-44
1.15345e-44
2.16642e-45
9.17668e-46
1.66323e-46
7.02958e-47
1.23825e-47
5.22199e-48
8.91335e-49
3.75237e-49
6.23611e-50
2.62055e-50
4.23403e-51
1.77644e-51
2.79956e-52
1.17226e-52
1.8054e-53
7.49683e-54
1.29645e-54
5.7e-55
7.0003e-55
1.90134e-55
1.95698e-55
1.08857e-56
-9.6203e-55
-1.23686e-55
-8.04179e-55
-1.00029e-55
-1.13164e-55
7.21785e-57
3.33403e-55
7.4642e-56
3.5258e-55
4.23213e-57
-2.50239e-55
-7.39195e-56
-2.61455e-55
-3.0427e-56
2.97462e-55
3.48576e-56
3.78082e-55
3.54849e-56
1.44908e-55
1.0378e-56
-2.89353e-56
6.46004e-57
-1.47023e-56
2.99553e-56
-3.55815e-56
-2.34994e-56
-1.16484e-55
-1.41778e-55
-4.32622e-55
-8.9716e-56
5.91314e-55
6.48077e-56
1.08389e-54
4.18802e-56
5.65537e-55
-1.68824e-56
1.30518e-55
8.06731e-56
8.62414e-55
3.59134e-56
1.12442e-55
-4.1388e-55
-5.7912e-38
-1.22774e-38
-6.29833e-39
8.63249e-40
-6.5681e-40
1.66441e-40
-6.39593e-41
1.85902e-41
-5.99894e-42
1.74746e-42
-5.33422e-43
1.53165e-43
-4.57897e-44
1.26852e-44
-3.76109e-45
1.0132e-45
-2.9893e-46
7.77893e-47
-2.28786e-47
5.7909e-48
-1.69826e-48
4.16803e-49
-1.21949e-49
2.91577e-50
-8.51156e-51
1.97943e-51
-5.7669e-52
1.30862e-52
-3.80552e-53
8.42147e-54
-2.44619e-54
5.38251e-55
-1.47481e-55
6.97294e-56
-3.06551e-59
1.32573e-56
-2.75266e-59
-5.69258e-56
-7.19647e-57
-4.76973e-56
-5.79966e-57
-6.73019e-57
4.09515e-58
1.97845e-56
4.32136e-57
2.09824e-56
2.51514e-58
-1.47904e-56
-4.27459e-57
-1.54743e-56
-1.76635e-57
1.76338e-56
2.01698e-57
2.24416e-56
2.06535e-57
8.67681e-57
6.01649e-58
-1.77209e-57
3.55117e-58
-8.86707e-58
1.66445e-57
-2.08529e-57
-1.61233e-57
-6.70612e-57
-8.39909e-57
-2.4717e-56
-4.99884e-57
3.84875e-56
3.9824e-57
6.51601e-56
2.48327e-57
3.38324e-56
-9.46499e-58
7.96021e-57
4.68149e-57
5.11314e-56
2.07632e-57
6.69848e-57
-2.45457e-56
-1.73298e-37
-3.53989e-38
-1.88628e-38
-4.12946e-39
-1.9686e-39
-4.17949e-40
-1.91823e-40
-3.98529e-41
-1.80018e-41
-3.56594e-42
-1.60148e-42
-3.07423e-43
-1.37531e-43
-2.53114e-44
-1.13006e-44
-2.01679e-45
-8.98452e-46
-1.54635e-46
-6.87818e-47
-1.15011e-47
-5.10684e-48
-8.27178e-49
-3.66789e-49
-5.7829e-50
-2.5605e-50
-3.92359e-51
-1.7351e-51
-2.59261e-52
-1.14505e-52
-1.66719e-53
-7.35524e-54
-1.04536e-54
-4.60587e-55
-6.18396e-56
-2.76462e-56
-3.17368e-57
-1.65258e-57
-3.51988e-57
-5.03467e-58
-2.7716e-57
-3.34026e-58
-3.9087e-58
2.24469e-59
1.14476e-57
2.44527e-58
1.21785e-57
1.45688e-59
-8.52257e-58
-2.41638e-58
-8.92967e-58
-1.00202e-58
1.01921e-57
1.14084e-58
1.29877e-57
1.17438e-58
5.06746e-58
3.40692e-59
-1.06057e-58
1.9022e-59
-5.21879e-59
9.01814e-59
-1.19067e-58
-1.05725e-58
-3.75899e-58
-4.86312e-58
-1.3744e-57
-2.71635e-58
2.42361e-57
2.38741e-58
3.81899e-57
1.4396e-58
1.97317e-57
-5.18671e-59
4.73147e-58
2.65505e-58
2.95569e-57
1.1734e-58
3.88803e-58
-1.41974e-57
6.10893e-38
-2.26248e-38
6.63992e-39
-1.87442e-39
6.9208e-40
-1.63313e-40
6.73678e-41
-1.46651e-41
6.3166e-42
-1.28445e-42
5.61526e-43
-1.09925e-43
4.8192e-44
-9.02839e-45
3.95774e-45
-7.18731e-46
3.14515e-46
-5.50857e-47
2.40686e-47
-4.09601e-48
1.78643e-48
-2.94532e-49
1.2827e-49
-2.05873e-50
8.95218e-51
-1.39657e-51
6.06511e-52
-9.22665e-53
4.00186e-53
-5.93234e-54
2.57017e-54
-3.7208e-55
1.61057e-55
-2.26438e-56
9.87199e-57
-1.32411e-57
5.89493e-58
-2.65698e-58
1.19123e-59
-1.60489e-58
-1.6213e-59
-2.23531e-59
1.34396e-60
6.47334e-59
1.35246e-59
6.90686e-59
8.2542e-61
-4.80141e-59
-1.33424e-59
-5.03764e-59
-5.55293e-60
5.75812e-59
6.30334e-60
7.34635e-59
6.524e-60
2.88992e-59
1.88405e-60
-6.18017e-60
9.90352e-61
-2.9959e-60
4.76109e-60
-6.63606e-60
-6.6481e-60
-2.05535e-59
-2.74919e-59
-7.45316e-59
-1.43903e-59
1.48372e-58
1.39401e-59
2.18804e-58
8.14849e-60
1.12469e-58
-2.77239e-60
2.74195e-59
1.47101e-59
1.67005e-58
6.4763e-60
2.20469e-59
-8.02674e-59
1.71013e-37
-2.42672e-39
1.85857e-38
2.76344e-39
1.9378e-39
3.84395e-40
1.88626e-40
4.02489e-41
1.76883e-41
3.7123e-42
1.57237e-42
3.23371e-43
1.34946e-43
2.6724e-44
1.10814e-44
2.13279e-45
8.80553e-46
1.63682e-46
6.73768e-47
1.21826e-47
5.00025e-48
8.76737e-49
3.58975e-49
6.13288e-50
2.50495e-50
4.16329e-51
1.6968e-51
2.75241e-52
1.11938e-52
1.77084e-53
7.18773e-54
1.11148e-54
4.50274e-55
6.8048e-56
2.75168e-56
4.07176e-57
1.64298e-57
2.27573e-58
9.4647e-59
4.98913e-60