/*--------------------------------*- C++ -*----------------------------------*\
| =========                 |                                                 |
| \\      /  F ield         | OpenFOAM: The Open Source CFD Toolbox           |
|  \\    /   O peration     | Version:  2.4.0                                 |
|   \\  /    A nd           | Web:      www.OpenFOAM.org                      |
|    \\/     M anipulation  |                                                 |
\*---------------------------------------------------------------------------*/
FoamFile
{
    version     2.0;
    format      ascii;
    class       surfaceScalarField;
    location    "0.6";
    object      phi;
}
// * * * * * * * * * * * * * * * * * * * * * * * * * * * * * * * * * * * * * //

dimensions      [0 3 -1 0 0 0 0];

internalField   nonuniform List<scalar> 
15214
(
2.72757e-39
5.56415e-41
1.52398e-38
3.47708e-40
2.14945e-38
2.72723e-39
5.1889e-37
2.12553e-39
4.21472e-41
-5.26088e-39
-5.1855e-37
-5.25499e-39
-1.84572e-38
2.1862e-39
2.77807e-39
3.13022e-39
3.43409e-38
3.42902e-39
5.43158e-37
4.96879e-39
5.37165e-37
-2.72123e-39
-4.79078e-37
-7.3864e-39
1.83173e-38
2.12552e-39
5.21961e-37
4.85265e-39
2.1834e-38
-2.18689e-39
1.5285e-38
-2.7339e-39
2.73985e-39
-3.48322e-40
2.97659e-40
-5.47904e-41
3.82594e-41
-5.96036e-42
3.89282e-42
-6.88436e-43
4.14516e-43
-6.68642e-44
3.85813e-44
-6.52525e-45
3.61778e-45
-5.72967e-46
6.13831e-46
-4.55277e-47
3.64122e-45
4.58374e-47
3.88614e-44
5.76631e-46
4.17798e-43
6.57076e-45
3.92775e-42
6.73873e-44
3.86348e-41
6.9438e-43
3.0113e-40
6.0206e-42
2.77414e-39
5.54108e-41
1.55435e-38
3.53581e-40
2.42684e-38
2.7826e-39
5.34429e-37
2.47904e-39
2.42684e-38
-2.47904e-39
1.55435e-38
-2.7826e-39
2.77414e-39
-3.53581e-40
3.0113e-40
-5.54108e-41
3.86348e-41
-6.02062e-42
3.92768e-42
-6.94553e-43
4.17321e-43
-6.89098e-44
3.6573e-44
-1.75828e-44
-7.25685e-45
-7.88965e-44
-8.26949e-45
-3.61157e-43
1.13083e-44
-1.80573e-42
-2.49503e-43
7.00664e-40
-6.00323e-41
3.86112e-39
-4.91212e-40
2.60986e-38
-3.69358e-39
4.30603e-38
-2.83364e-39
1.26417e-41
7.09817e-39
-4.29607e-38
7.09072e-39
-2.53052e-38
-2.91302e-39
7.18002e-40
-4.25799e-39
2.93549e-38
-4.68532e-39
6.98755e-38
-6.67925e-39
4.77144e-38
3.68604e-39
-1.22949e-38
9.93179e-39
4.66666e-39
-2.83363e-39
4.38637e-38
-6.52711e-39
2.6198e-38
2.91383e-39
3.87485e-39
3.70198e-39
7.06602e-40
4.9257e-40
8.68594e-41
7.1946e-41
1.1414e-41
7.52913e-42
1.22946e-42
8.16993e-43
1.33418e-43
7.61438e-44
1.28245e-44
7.12136e-45
1.22131e-45
6.06119e-46
2.1157e-46
4.68759e-47
1.22948e-45
-4.71806e-47
1.29209e-44
-6.09805e-46
1.34523e-43
-7.16821e-45
1.24105e-42
-7.66987e-44
1.15344e-41
-8.235e-43
8.7953e-41
-7.59805e-42
7.16761e-40
-7.26857e-41
3.95003e-39
-4.99268e-40
2.68153e-38
-3.76624e-39
4.7009e-38
-3.33282e-39
2.68153e-38
3.33282e-39
3.95003e-39
3.76624e-39
7.16761e-40
4.99268e-40
8.7953e-41
7.26856e-41
1.15343e-41
7.5979e-42
1.24031e-42
8.22109e-43
1.29334e-43
6.43079e-44
-1.21105e-44
-8.35252e-44
-1.1907e-43
-6.53646e-43
-9.53007e-44
-3.06979e-42
1.21393e-43
-1.55792e-41
-2.14601e-42
1.47986e-40
-1.74053e-41
6.15747e-40
-1.35634e-40
3.14435e-39
-8.53905e-40
4.94596e-39
-6.17893e-40
3.40829e-42
1.63074e-39
-4.92166e-39
1.62841e-39
-2.97497e-39
-6.41148e-40
1.51567e-40
-1.01082e-39
3.63631e-39
-1.128e-39
8.24144e-39
-1.5162e-39
5.73076e-39
8.51529e-40
-1.01338e-39
2.24863e-39
7.88199e-40
-6.17886e-40
5.11795e-39
-1.47174e-39
3.16857e-39
6.41411e-40
6.19304e-40
8.56519e-40
1.48514e-40
1.36033e-40
2.08624e-41
2.09372e-41
3.05674e-42
2.35207e-42
3.5198e-43
2.63543e-43
4.02798e-44
2.55529e-44
4.01902e-45
2.44401e-45
3.94494e-46
2.13381e-46
6.98938e-47
1.67535e-47
3.97238e-46
-1.6866e-47
4.0508e-45
-2.14723e-46
4.0636e-44
-2.46075e-45
3.55601e-43
-2.57479e-44
3.09293e-42
-2.65771e-43
2.11733e-41
-2.37515e-42
1.51211e-40
-2.11747e-41
6.37029e-40
-1.38117e-40
3.29552e-39
-8.75053e-40
5.5826e-39
-7.55978e-40
3.29552e-39
7.55978e-40
6.37029e-40
8.75053e-40
1.51211e-40
1.38117e-40
2.11732e-41
2.11746e-41
3.09206e-42
2.37401e-42
3.49186e-43
2.5519e-43
-4.99103e-45
-6.96531e-44
-2.18751e-43
-7.05336e-43
-1.08606e-42
-5.19533e-42
-8.67927e-43
-2.48865e-41
1.08136e-42
-1.28764e-40
-1.76433e-41
2.23545e-41
-5.12984e-42
7.27366e-41
-3.24307e-41
2.88243e-40
-1.90245e-40
4.3281e-40
-1.34642e-40
6.24213e-43
3.62904e-40
-4.28655e-40
3.62282e-40
-2.6236e-40
-1.40597e-40
2.29126e-41
-2.27754e-40
3.42829e-40
-2.55275e-40
7.43876e-40
-3.36105e-40
5.31337e-40
1.8945e-40
-4.54106e-41
4.97522e-40
9.91518e-41
-1.34612e-40
4.59158e-40
-3.24688e-40
2.92376e-40
1.40671e-40
7.33657e-41
1.908e-40
2.23571e-41
3.23201e-41
3.52229e-42
5.35883e-42
5.56443e-43
6.34821e-43
6.76063e-44
7.45468e-44
8.02035e-45
7.48512e-45
8.24595e-46
7.36588e-46
8.27004e-47
6.57501e-47
1.49287e-47
5.24851e-48
8.32939e-47
-5.28471e-48
8.31375e-46
-6.61767e-47
8.09485e-45
-7.41834e-46
6.83474e-44
-7.54512e-45
5.63624e-43
-7.52167e-44
3.58171e-42
-6.41558e-43
2.28443e-41
-5.42576e-42
7.63155e-41
-3.28789e-41
3.11075e-40
-1.95509e-40
5.09049e-40
-1.67483e-40
3.11075e-40
1.67483e-40
7.63155e-41
1.95509e-40
2.28442e-41
3.28788e-41
3.58092e-42
5.42502e-42
5.56595e-43
6.33698e-43
1.58887e-44
1.21787e-45
-3.70027e-43
-6.68998e-43
-1.87406e-42
-5.10365e-42
-9.28984e-42
-3.82427e-41
-7.48273e-42
-1.88188e-40
9.09449e-42
-9.93548e-40
-1.35809e-40
3.18328e-42
-6.52607e-42
7.79939e-42
-7.50659e-42
1.98663e-41
-3.22395e-41
2.7007e-41
-2.16282e-41
1.08735e-43
5.89664e-41
-2.63294e-41
5.88861e-41
-1.60642e-41
-2.2487e-41
3.315e-42
-3.75213e-41
2.50451e-41
-4.22555e-41
5.01383e-41
-5.44153e-41
3.85056e-41
3.08158e-41
4.46495e-42
8.03995e-41
1.16164e-41
-2.13874e-41
3.08533e-41
-5.2323e-41
2.05055e-41
2.25009e-41
7.85455e-42
3.10746e-41
3.22059e-42
5.60683e-42
5.57969e-43
9.79083e-43
9.45744e-44
1.21394e-43
1.19924e-44
1.47425e-44
1.47008e-45
1.52414e-45
1.54848e-46
1.53199e-46
1.58296e-47
1.39347e-47
2.90067e-48
1.1268e-48
1.59461e-47
-1.13476e-48
1.56163e-46
-1.40275e-47
1.48432e-45
-1.54325e-46
1.21313e-44
-1.53684e-45
9.58867e-44
-1.48815e-44
5.6846e-43
-1.22763e-43
3.30286e-42
-9.92273e-43
8.315e-42
-5.71317e-42
2.31441e-41
-3.19292e-41
3.52971e-41
-2.70991e-41
2.31441e-41
2.70991e-41
8.31494e-42
3.19292e-41
3.30222e-42
5.71275e-42
5.62506e-43
9.87541e-43
4.20696e-44
7.22226e-44
-3.94937e-43
-4.67399e-43
-2.98364e-42
-4.489e-42
-1.50942e-41
-3.46313e-41
-7.63761e-41
-2.66865e-40
-6.21247e-41
-1.36132e-39
7.33896e-41
-7.40134e-39
-1.00441e-39
-3.40465e-44
-4.34576e-41
1.21426e-42
-1.52926e-41
1.10693e-42
-1.46259e-41
9.3636e-43
-5.0574e-42
3.38881e-44
8.82408e-42
-7.43062e-43
9.09126e-42
-4.13473e-43
-3.4638e-42
4.33403e-43
-5.86622e-42
1.36656e-42
-6.62167e-42
2.18307e-42
-8.42384e-42
2.11457e-42
4.77693e-42
1.361e-42
1.24279e-41
1.28978e-42
-3.27215e-42
1.34968e-42
-8.07e-42
1.00515e-42
3.46087e-42
7.94748e-43
4.82223e-42
4.19445e-43
9.02649e-43
7.81552e-44
1.65176e-43
1.39261e-44
2.12032e-44
1.82718e-45
2.65317e-45
2.29637e-46
2.80743e-46
2.46852e-47
2.87448e-47
2.56287e-48
2.6541e-48
4.75831e-49
2.16982e-49
2.58217e-48
-2.18543e-49
2.49008e-47
-2.67215e-48
2.31938e-46
-2.89616e-47
1.84928e-45
-2.83159e-46
1.41306e-44
-2.67922e-45
7.97476e-44
-2.14547e-44
4.31495e-43
-1.67543e-43
8.58516e-43
-9.21142e-43
1.34276e-42
-4.96564e-42
1.69697e-42
-4.19301e-42
1.34273e-42
4.193e-42
8.58106e-43
4.96545e-42
4.27155e-43
9.18787e-43
3.84826e-44
1.41288e-43
-3.63997e-43
-2.6263e-43
-2.90511e-42
-2.75191e-42
-2.17449e-41
-2.61994e-41
-1.1271e-40
-2.07905e-40
-5.83269e-40
-1.65843e-39
-4.79716e-40
-8.89545e-39
5.47168e-40
-4.97648e-38
-6.75738e-39
-2.94526e-42
-3.02024e-40
3.83895e-42
-1.02143e-40
1.61473e-42
-7.20811e-41
6.90807e-43
-1.31144e-41
1.46716e-43
-1.03801e-42
1.27231e-43
9.58866e-43
7.51797e-44
-5.07318e-43
5.60179e-44
-8.14732e-43
3.33119e-44
-9.17905e-43
-4.06309e-44
-1.15329e-42
5.69854e-44
6.55091e-43
2.28285e-43
1.6991e-42
1.47498e-43
-4.42798e-43
-2.25874e-44
-1.10106e-42
5.09335e-45
4.70687e-43
8.37402e-44
6.61974e-43
5.36342e-44
1.28223e-43
1.04931e-44
2.4314e-44
1.94074e-45
3.21422e-45
2.61152e-46
4.11728e-46
3.3482e-47
4.44374e-47
3.65684e-48
4.61895e-48
3.84487e-49
4.32116e-49
7.21311e-50
3.56562e-50
3.87435e-49
-3.5917e-50
3.68949e-48
-4.3511e-49
3.38267e-47
-4.65458e-48
2.64421e-46
-4.48303e-47
1.97049e-45
-4.15909e-46
1.072e-44
-3.25396e-45
5.53065e-44
-2.46804e-44
9.22252e-44
-1.31017e-43
4.77082e-44
-6.82985e-43
3.59562e-45
-5.73775e-43
4.74768e-44
5.73693e-43
8.96379e-44
6.82022e-43
2.75912e-44
1.1931e-43
-2.56376e-43
-1.07515e-43
-2.48965e-42
-1.45259e-42
-1.95557e-41
-1.44132e-41
-1.50244e-40
-1.41279e-40
-8.03761e-40
-1.16583e-39
-4.29802e-39
-9.80076e-39
-3.58211e-39
-5.6347e-38
3.93104e-39
-3.31758e-37
-4.43822e-38
-1.23836e-41
-2.03159e-39
3.41661e-41
-6.57039e-40
1.30784e-41
-4.6073e-40
5.88423e-42
-7.96466e-41
1.06505e-42
-1.37444e-41
2.11924e-43
-1.57168e-42
4.05956e-44
-2.74975e-43
9.8287e-45
-1.29389e-43
-3.94597e-45
-1.23635e-43
-2.33066e-44
-1.51512e-43
-5.43713e-45
8.5992e-44
3.04571e-44
2.22668e-43
1.67172e-44
-5.76017e-44
-1.38922e-44
-1.44061e-43
-6.55177e-45
6.14776e-44
8.98698e-45
8.69864e-44
6.46848e-45
1.72582e-44
1.31023e-45
3.3685e-45
2.48824e-46
4.55436e-46
3.41701e-47
5.94628e-47
4.45014e-48
6.51872e-48
4.92609e-49
6.8599e-49
5.23393e-50
6.48526e-50
9.90823e-51
5.39196e-51
5.27468e-50
-5.43193e-51
4.97091e-49
-6.53086e-50
4.49702e-48
-6.91379e-49
3.46099e-47
-6.57764e-48
2.52771e-46
-6.00829e-47
1.33984e-45
-4.61257e-46
6.6821e-45
-3.42132e-45
1.00388e-44
-1.76529e-44
-1.47055e-45
-8.98879e-44
-1.19786e-44
-7.5269e-44
-2.72148e-45
7.49654e-44
-4.08833e-45
8.63139e-44
-1.4661e-43
-2.63139e-44
-1.49906e-42
-4.99947e-43
-1.42775e-41
-5.64818e-42
-1.14919e-40
-5.73998e-41
-9.099e-40
-5.84486e-40
-5.06677e-39
-5.12061e-39
-2.80121e-38
-4.63178e-38
-2.36832e-38
-2.97579e-37
2.46806e-38
-1.8262e-36
-2.46676e-37
6.17055e-41
-1.19874e-38
3.22769e-40
-4.03072e-39
1.06781e-40
-2.93322e-39
4.36722e-41
-4.84486e-40
7.54181e-42
-8.12917e-41
1.29721e-42
-9.7613e-42
1.67541e-43
-1.17743e-42
2.1255e-44
-1.32384e-43
1.22589e-45
-2.68144e-44
-3.48098e-45
-1.95307e-44
-1.26669e-45
1.04077e-44
3.7051e-45
2.7128e-44
1.89387e-45
-6.97097e-45
-2.20882e-45
-1.75307e-44
-1.14675e-45
7.46663e-45
9.86956e-46
1.0629e-44
7.56046e-46
2.15521e-45
1.56752e-46
4.3014e-46
3.03557e-47
5.92661e-47
4.23395e-48
7.85618e-48
5.58318e-49
8.72712e-49
6.24675e-50
9.27766e-50
6.69362e-51
8.85058e-51
1.2764e-51
7.40554e-52
6.74637e-51
-7.46109e-52
6.30442e-50
-8.91363e-51
5.64303e-49
-9.3517e-50
4.28959e-48
-8.80753e-49
3.08492e-47
-7.94005e-48
1.60399e-46
-6.00458e-47
7.81821e-46
-4.37128e-46
1.10919e-45
-2.20676e-45
-5.96393e-46
-1.1003e-44
-2.54848e-45
-9.24291e-45
-6.77598e-45
8.26985e-45
-6.96031e-44
-5.99922e-46
-7.8015e-43
-1.42887e-43
-7.79664e-42
-1.69063e-42
-7.62289e-41
-1.95209e-41
-6.32996e-40
-2.05739e-40
-5.22766e-39
-2.2319e-39
-3.05527e-38
-2.14039e-38
-1.79191e-37
-2.18815e-37
-1.5392e-37
-1.63424e-36
1.52876e-37
-1.11968e-35
-1.4356e-36
2.23887e-39
-7.08406e-38
3.20021e-39
-2.02301e-38
8.39575e-40
-1.40959e-38
2.8689e-40
-2.2278e-39
4.66126e-41
-3.53879e-40
7.64181e-42
-4.1001e-41
9.48194e-43
-4.7463e-42
1.14891e-43
-4.74026e-43
1.185e-44
-4.81959e-44
7.53334e-46
-6.54738e-45
-6.13879e-47
1.0291e-45
4.25708e-46
3.54666e-45
2.07713e-46
-9.15828e-46
-2.70558e-46
-2.3075e-45
-1.44428e-46
9.81392e-46
1.0608e-46
1.4033e-45
8.38298e-47
2.89151e-46
1.77012e-47
5.86862e-47
3.4792e-48
8.20115e-48
4.91669e-49
1.09972e-48
6.54985e-50
1.23396e-49
7.39636e-51
1.32202e-50
7.98256e-52
1.26987e-51
1.53192e-52
1.06768e-52
8.04564e-52
-1.07577e-52
7.46467e-51
-1.27901e-51
6.61975e-50
-1.33271e-50
4.98027e-49
-1.24552e-49
3.53355e-48
-1.1117e-48
1.80722e-47
-8.31198e-48
8.603e-47
-5.96739e-47
1.0949e-46
-2.96435e-46
-2.22577e-46
-1.45661e-45
-2.07808e-45
-1.25273e-45
-2.25959e-44
6.18804e-46
-2.59551e-43
-6.22502e-45
-2.91952e-42
-9.8232e-44
-2.98168e-41
-1.19579e-42
-2.99882e-40
-1.50374e-41
-2.58551e-39
-1.87637e-40
-2.23019e-38
-2.66752e-39
-1.38522e-37
-3.7614e-38
-8.56301e-37
-5.29826e-37
-7.45026e-37
-5.68956e-36
6.73599e-37
-4.10226e-35
-5.50431e-36
-2.16401e-39
-4.39943e-41
-1.25084e-38
-2.87945e-40
-1.79375e-38
-2.49375e-39
-4.73451e-37
-1.99272e-39
5.16664e-46
4.82242e-39
4.73451e-37
4.82242e-39
1.79376e-38
-1.99272e-39
1.25101e-38
-2.49373e-39
2.16792e-39
-2.87864e-40
2.16955e-40
-4.32376e-41
2.66302e-41
-4.34361e-42
2.26484e-42
-4.80519e-43
-2.26501e-42
-8.62126e-44
-2.66322e-41
-4.80546e-43
-2.16978e-40
-4.34393e-42
-2.16817e-39
-4.32416e-41
-1.25126e-38
-2.87907e-40
-1.79645e-38
-2.49421e-39
-4.7367e-37
-1.99711e-39
-2.19483e-39
4.7787e-39
4.60721e-37
4.53017e-39
-2.19483e-39
-4.53017e-39
-4.7367e-37
-4.7787e-39
-1.79645e-38
1.99711e-39
-1.25126e-38
2.49421e-39
-2.1682e-39
2.87907e-40
-2.17236e-40
4.32376e-41
-2.91944e-41
4.3002e-42
-2.94067e-41
-3.65271e-45
-2.19497e-40
-4.3396e-42
-2.19231e-39
-4.36707e-41
-1.27027e-38
-2.9177e-40
-1.99129e-38
-2.53306e-39
-4.83986e-37
-2.24125e-39
-7.40286e-39
2.57722e-39
7.4026e-39
5.0749e-39
4.83984e-37
2.57719e-39
1.98867e-38
-2.24171e-39
1.25557e-38
-2.53628e-39
-3.10991e-40
-5.54317e-40
4.77411e-41
-3.18e-39
4.06934e-40
-2.3586e-38
3.37871e-39
-3.95844e-38
2.66223e-39
2.52196e-46
-6.51073e-39
3.95844e-38
-6.51073e-39
2.3586e-38
2.66223e-39
3.18062e-39
3.3787e-39
5.57022e-40
4.07261e-40
6.32907e-41
5.64641e-41
7.91521e-42
5.46114e-42
7.12874e-43
5.66384e-43
-7.12932e-43
9.77032e-44
-7.91587e-42
5.66411e-43
-6.32981e-41
5.46149e-42
-5.57104e-40
5.64685e-41
-3.18142e-39
4.0731e-40
-2.3594e-38
3.37927e-39
-3.96485e-38
2.66774e-39
-5.65027e-40
-6.4537e-39
3.63397e-38
-6.09796e-39
-5.65027e-40
6.09796e-39
-3.96485e-38
6.4537e-39
-2.3594e-38
-2.66774e-39
-3.18142e-39
-3.37927e-39
-5.57112e-40
-4.0731e-40
-6.33812e-41
-5.64641e-41
-8.72459e-42
-5.41197e-42
-8.79226e-42
3.97803e-45
-6.40928e-41
5.45679e-42
-5.64232e-40
5.6977e-41
-3.23671e-39
4.12204e-40
-2.4087e-38
3.43022e-39
-4.22641e-38
3.01797e-39
-2.09064e-38
-3.48777e-39
2.09063e-38
-6.87145e-39
4.22634e-38
-3.48774e-39
2.40784e-38
3.01825e-39
3.18491e-39
3.42789e-39
3.16638e-40
-1.18139e-40
1.37761e-41
-5.09601e-40
1.12689e-40
-2.854e-39
7.84153e-40
-4.58636e-39
5.86789e-40
1.33873e-47
-1.50205e-39
4.58636e-39
-1.50205e-39
2.854e-39
5.86788e-40
5.0967e-40
7.8415e-40
1.18108e-40
1.12786e-40
1.52917e-41
1.64239e-41
2.1316e-42
1.70696e-42
2.03642e-43
1.82566e-43
-2.03661e-43
3.27721e-44
-2.13182e-42
1.82576e-43
-1.5294e-41
1.70708e-42
-1.18133e-40
1.64253e-41
-5.09901e-40
1.12802e-40
-2.85616e-39
7.84332e-40
-4.60188e-39
5.88512e-40
-1.20267e-40
-1.48545e-39
4.06116e-39
-1.38754e-39
-1.20267e-40
1.38754e-39
-4.60188e-39
1.48545e-39
-2.85616e-39
-5.88512e-40
-5.09901e-40
-7.84332e-40
-1.18136e-40
-1.12802e-40
-1.53192e-41
-1.64238e-41
-2.36465e-42
-1.69046e-42
-2.385e-42
1.36001e-45
-1.55224e-41
1.70547e-42
-1.20039e-40
1.65884e-41
-5.23034e-40
1.14327e-40
-2.95875e-39
7.99033e-40
-4.99128e-39
6.84691e-40
-2.44908e-39
-8.15807e-40
2.44907e-39
-1.60151e-39
4.99119e-39
-8.15796e-40
2.95778e-39
6.84777e-40
5.17159e-40
7.98367e-40
8.74805e-41
-1.79869e-41
3.51747e-42
-6.0522e-41
2.67977e-41
-2.63248e-40
1.74916e-40
-4.05654e-40
1.28437e-40
-4.24061e-48
-3.34922e-40
4.05654e-40
-3.34922e-40
2.63247e-40
1.28437e-40
6.05237e-41
1.74917e-40
1.79089e-41
2.68322e-41
2.59405e-42
4.21712e-42
3.89282e-43
4.62008e-43
3.90409e-44
5.18175e-44
-3.9045e-44
9.62209e-45
-3.89327e-43
5.18206e-44
-2.59452e-42
4.62046e-43
-1.79139e-41
4.21757e-42
-6.05682e-41
2.6837e-41
-2.63642e-40
1.74968e-40
-4.08292e-40
1.28904e-40
-1.83037e-41
-3.30653e-40
3.42492e-40
-3.07623e-40
-1.83037e-41
3.07623e-40
-4.08292e-40
3.30653e-40
-2.63642e-40
-1.28904e-40
-6.05682e-41
-1.74968e-40
-1.79144e-41
-2.6837e-41
-2.59955e-42
-4.21712e-42
-4.34215e-43
-4.57163e-43
-4.38246e-43
4.09874e-46
-2.6385e-42
4.61558e-43
-1.82597e-41
4.26364e-42
-6.27676e-41
2.72471e-41
-2.78912e-40
1.78719e-40
-4.50513e-40
1.51467e-40
-2.18388e-40
-1.83035e-40
2.18387e-40
-3.58371e-40
4.50509e-40
-1.83033e-40
2.7888e-40
1.51475e-40
6.24863e-41
1.78469e-40
2.05661e-41
-2.62827e-42
6.38776e-43
-6.49898e-42
4.65311e-42
-1.84252e-41
2.85255e-41
-2.60453e-41
2.0509e-41
-2.45154e-48
-5.45674e-41
2.60452e-41
-5.45674e-41
1.84248e-41
2.0509e-41
6.49705e-42
2.85257e-41
2.5999e-42
4.66099e-42
4.12695e-43
7.71942e-43
6.63969e-44
8.8516e-44
6.91394e-45
1.02664e-44
-6.91474e-45
1.9617e-45
-6.64055e-44
1.02671e-44
-4.12785e-43
8.8524e-44
-2.60081e-42
7.72035e-43
-6.50496e-42
4.66198e-42
-1.84922e-41
2.8536e-41
-2.64659e-41
2.05985e-41
-2.6673e-42
-5.37852e-41
1.91276e-41
-4.98169e-41
-2.6673e-42
4.98169e-41
-2.64659e-41
5.37852e-41
-1.84922e-41
-2.05985e-41
-6.50497e-42
-2.8536e-41
-2.6009e-42
-4.66197e-42
-4.13709e-43
-7.71941e-43
-7.43972e-44
-8.75279e-44
-7.51338e-44
8.51567e-47
-4.20606e-43
8.84222e-44
-2.65948e-42
7.81126e-43
-6.85027e-42
4.74021e-42
-2.06715e-41
2.92184e-41
-3.02956e-41
2.44773e-41
-1.41744e-41
-3.001e-41
1.41745e-41
-5.86158e-41
3.02976e-41
-3.00098e-41
2.0691e-41
2.44768e-41
6.93325e-42
2.9161e-41
3.52548e-42
-3.46098e-43
1.07813e-43
-6.59665e-43
7.47618e-43
-8.94757e-43
4.43002e-42
-9.35411e-43
3.14764e-42
-3.88391e-49
-8.47709e-42
9.35407e-43
-8.47708e-42
8.94684e-43
3.14768e-42
6.59143e-43
4.43035e-42
3.40457e-43
7.51028e-43
5.79791e-44
1.30506e-43
9.79877e-45
1.54895e-44
1.0518e-45
1.85162e-45
-1.05193e-45
3.6186e-46
-9.80016e-45
1.85174e-45
-5.79934e-44
1.54911e-44
-3.406e-43
1.30524e-43
-6.60351e-43
7.5121e-43
-9.0464e-43
4.4322e-42
-9.94595e-43
3.16335e-42
-3.50414e-43
-8.34473e-42
2.17075e-43
-7.71039e-42
-3.50414e-43
7.71039e-42
-9.94595e-43
8.34473e-42
-9.0464e-43
-3.16335e-42
-6.60353e-43
-4.4322e-42
-3.40615e-43
-7.51209e-43
-5.81379e-44
-1.30506e-43
-1.1021e-44
-1.53072e-44
-1.11357e-44
1.59733e-47
-5.91871e-44
1.54719e-44
-3.4922e-43
1.32158e-43
-7.08377e-43
7.64845e-43
-1.18591e-42
4.54703e-42
-1.30332e-42
3.78202e-42
-5.26763e-43
-4.68108e-42
5.26806e-43
-9.12541e-42
1.30388e-42
-4.68109e-42
1.19119e-42
3.78155e-42
7.32412e-43
4.53512e-42
5.60226e-43
-4.36688e-44
3.62459e-44
-6.96129e-44
8.90216e-44
-2.61168e-45
6.06328e-43
6.04787e-44
4.27001e-43
1.81246e-48
-1.16461e-42
-6.0465e-44
-1.16459e-42
2.70514e-45
4.2727e-43
6.96031e-44
6.0864e-43
4.36896e-44
1.06773e-43
7.79924e-45
1.92392e-44
1.36786e-45
2.35138e-45
1.50129e-46
2.87771e-46
-1.50149e-46
5.73341e-47
-1.36807e-45
2.87792e-46
-7.80137e-45
2.35163e-45
-4.37105e-44
1.92421e-44
-6.97761e-44
1.06802e-43
-4.09601e-45
6.08928e-43
5.24928e-44
4.2965e-43
-4.50805e-44
-1.14506e-42
-1.38041e-43
-1.05544e-42
-4.50805e-44
1.05544e-42
5.24928e-44
1.14506e-42
-4.09603e-45
-4.2965e-43
-6.97763e-44
-6.08928e-43
-4.37127e-44
-1.06801e-43
-7.82248e-45
-1.92392e-44
-1.54294e-45
-2.32249e-45
-1.55962e-45
2.56516e-48
-7.97221e-45
2.34854e-45
-4.49097e-44
1.94953e-44
-7.61848e-44
1.08865e-43
-3.98132e-44
6.25787e-43
2.79703e-44
5.16896e-43
2.97906e-44
-6.45576e-43
-2.97804e-44
-1.25633e-42
-2.786e-44
-6.45583e-43
4.08117e-44
5.16778e-43
8.07599e-44
6.23763e-43
7.87213e-44
1.69293e-44
-7.78663e-44
-4.34975e-45
-1.2652e-43
7.33028e-45
6.26389e-44
1.77825e-44
5.39571e-44
1.65736e-47
-1.53303e-43
-1.76401e-44
-1.53169e-43
-6.18093e-45
5.57067e-44
7.48047e-45
8.00216e-44
5.27978e-45
1.43797e-44
9.75061e-46
2.66886e-45
1.75562e-46
3.33561e-46
1.96199e-47
4.16155e-47
-1.96227e-47
8.418e-48
-1.7559e-46
4.16187e-47
-9.75348e-46
3.33599e-46
-5.28257e-45
2.66928e-45
-7.50312e-45
1.4384e-44
6.00244e-45
8.00633e-44
1.66439e-44
5.60453e-44
-5.45842e-45
-1.50447e-43
-2.61198e-44
-1.3844e-43
-5.45842e-45
1.3844e-43
1.66439e-44
1.50447e-43
6.00244e-45
-5.60453e-44
-7.50315e-45
-8.00633e-44
-5.28286e-45
-1.4384e-44
-9.78156e-46
-2.66885e-45
-1.98508e-46
-3.29319e-46
-2.00719e-46
3.80828e-49
-9.97722e-46
3.3314e-46
-5.43604e-45
2.70581e-45
-8.29961e-45
1.46759e-44
1.7204e-45
8.23944e-44
1.46218e-44
6.77146e-44
9.201e-45
-8.51426e-44
-9.19924e-45
-1.65464e-43
-1.46045e-44
-8.51443e-44
-1.56934e-45
6.76918e-44
8.98803e-45
8.208e-44
1.04928e-44
4.90925e-43
3.20477e-42
4.6699e-44
-1.08268e-42
1.3331e-44
-1.21004e-43
3.92614e-45
-4.40796e-45
1.39127e-46
-1.95905e-44
-2.59537e-45
-1.87877e-44
-1.06922e-45
6.75115e-45
8.22173e-46
9.78248e-45
6.17797e-46
1.79674e-45
1.16745e-46
3.41115e-46
2.14346e-47
4.34447e-47
2.42861e-48
5.50346e-48
-2.42896e-48
1.1277e-48
-2.14382e-47
5.5039e-48
-1.16781e-46
4.34499e-47
-6.18141e-46
3.41173e-46
-8.24909e-46
1.79732e-45
1.04839e-45
9.78826e-45
2.48786e-45
6.79946e-45
-6.39612e-46
-1.8379e-44
-3.54908e-45
-1.68848e-44
-6.39612e-46
1.68848e-44
2.48786e-45
1.8379e-44
1.04839e-45
-6.79946e-45
-8.24912e-46
-9.78826e-45
-6.18177e-46
-1.79732e-45
-1.17134e-46
-3.41115e-46
-2.42814e-47
-4.28763e-47
-2.45584e-47
5.14799e-50
-1.19555e-46
4.33878e-47
-6.36837e-46
3.45994e-46
-9.1984e-46
1.83525e-45
5.50161e-46
1.00854e-44
2.30538e-45
8.2496e-45
1.37228e-45
-1.0437e-44
-1.37202e-45
-2.02588e-44
-2.30295e-45
-1.04373e-44
-5.29568e-46
8.24598e-45
1.01323e-45
1.00416e-44
1.30025e-45
9.30037e-42
-1.78986e-41
9.76099e-43
-1.88654e-42
1.14583e-43
-1.67639e-43
1.05772e-44
-1.23214e-44
9.03632e-46
-3.48104e-45
-2.41652e-46
-2.54537e-45
-1.29181e-46
8.81789e-46
8.87848e-47
1.29171e-45
6.85707e-47
2.41142e-46
1.31925e-47
4.65716e-47
2.4581e-48
6.01574e-48
2.81781e-49
7.7094e-49
-2.81816e-49
1.59526e-49
-2.45842e-48
7.71008e-49
-1.3195e-47
6.01655e-48
-6.85845e-47
4.65811e-47
-8.87174e-47
2.41244e-46
1.32156e-46
1.29281e-45
2.99947e-46
8.9291e-46
-7.10468e-47
-2.42612e-45
-4.15374e-46
-2.2262e-45
-7.10468e-47
2.2262e-45
2.99947e-46
2.42612e-45
1.32156e-46
-8.9291e-46
-8.87178e-47
-1.29281e-45
-6.85889e-47
-2.41243e-46
-1.32364e-47
-4.65729e-47
-2.78893e-48
-5.9354e-48
-2.82136e-48
7.33284e-51
-1.35174e-47
6.0077e-48
-7.07244e-47
4.72553e-47
-9.94057e-47
2.46487e-46
7.71303e-47
1.33329e-45
2.82604e-46
1.08673e-45
1.65524e-46
-1.38133e-45
-1.65489e-46
-2.67878e-45
-2.82297e-46
-1.38138e-45
-7.45937e-47
1.08615e-45
1.10835e-46
1.32691e-45
1.73388e-46
5.83341e-38
-4.93903e-37
5.25538e-38
-1.66023e-37
1.15229e-38
-1.25644e-37
3.30252e-39
-1.75095e-38
4.92864e-40
-2.6525e-39
7.65386e-41
-2.90403e-40
9.10892e-42
-3.26395e-41
1.07321e-42
-3.1467e-42
1.09269e-43
-3.02154e-43
1.07798e-44
-2.65102e-44
9.56107e-46
-2.1582e-45
1.33125e-46
6.3831e-47
3.04479e-47
-7.59438e-47
-3.16789e-47
-1.58118e-46
-1.73656e-47
6.67001e-47
1.19357e-47
9.5825e-47
9.5861e-48
2.00708e-47
2.04908e-48
4.16682e-48
4.06822e-49
5.92356e-49
5.80072e-50
8.07558e-50
7.78019e-51
9.18575e-51
8.83964e-52
9.96045e-52
9.58338e-53
9.66696e-53
1.84483e-53
8.19458e-54
9.63209e-53
-8.2544e-54
8.87517e-52
-9.73235e-53
7.78679e-51
-1.00332e-51
5.75303e-50
-9.25804e-51
3.9402e-49
-8.14018e-50
1.80376e-48
-5.96527e-49
5.62104e-48
-4.17634e-48
-4.67374e-47
-1.96587e-47
-8.3041e-46
-8.60356e-47
-1.06202e-44
1.02601e-46
-1.3332e-43
2.57365e-45
-1.56746e-42
3.17883e-44
-1.8102e-41
3.87943e-43
-1.89961e-40
4.27073e-42
-1.99014e-39
4.09686e-41
-1.78673e-38
1.97396e-40
-1.65131e-37
-3.40413e-39
-1.0941e-36
-1.49936e-37
-7.85228e-36
-3.17046e-36
-6.87486e-36
-4.82813e-35
6.95549e-36
-2.54936e-35
-4.84187e-35
7.65819e-36
1.15008e-36
-6.72817e-37
8.31033e-37
-5.56068e-37
1.32796e-37
-1.40378e-37
2.65913e-38
-1.68524e-38
3.45523e-39
-2.36949e-39
4.78046e-40
-2.52533e-40
5.34145e-41
-2.80945e-41
5.98283e-42
-2.6931e-42
5.89501e-43
-2.57904e-43
5.69107e-44
-2.24551e-44
5.03627e-45
-1.90999e-45
4.36291e-46
-1.35511e-46
3.64188e-47
-1.62724e-47
6.87886e-49
-1.20471e-47
-9.07036e-49
4.67923e-48
7.58402e-49
6.82587e-48
6.03538e-49
1.44536e-48
1.3052e-49
3.02086e-49
2.62542e-50
4.32625e-50
3.78561e-51
5.92249e-51
5.12905e-52
6.76661e-52
5.87881e-53
7.35404e-53
6.42234e-54
7.15424e-54
1.25202e-54
6.07104e-55
6.58891e-54
-6.09248e-55
6.12806e-53
-7.16404e-54
5.50215e-52
-7.3408e-53
4.33833e-51
-6.70679e-52
3.44125e-50
-5.78392e-51
2.48264e-49
-4.06047e-50
2.27587e-48
-2.5686e-49
2.36761e-47
-7.29447e-49
3.05179e-46
3.8401e-48
3.89535e-45
1.45954e-46
4.81095e-44
2.05399e-45
5.5739e-43
2.61422e-44
6.27163e-42
3.21512e-43
6.46755e-41
3.57459e-42
6.53021e-40
3.52074e-41
5.74305e-39
1.97433e-40
5.01304e-38
-2.03312e-39
3.25464e-37
-1.08969e-37
2.09537e-36
-2.39197e-36
2.5045e-36
-3.75622e-35
-3.31975e-37
-1.87877e-33
-3.77055e-35
-1.15875e-36
3.04776e-35
-1.54418e-35
1.4372e-36
-7.23353e-37
1.09835e-36
5.05562e-38
2.10463e-37
1.20918e-38
2.48119e-38
2.19281e-39
3.33518e-39
2.49488e-40
3.56056e-40
2.84046e-41
3.9079e-41
2.73829e-42
3.75052e-42
2.62379e-43
3.56746e-43
2.28153e-44
3.10358e-44
1.94675e-45
2.63946e-45
1.56168e-46
2.10356e-46
1.17578e-47
1.61611e-47
1.68162e-49
1.12772e-48
3.68276e-49
1.33544e-49
4.44748e-49
4.47433e-50
9.45655e-50
8.8716e-51
1.99413e-50
1.7408e-51
2.88248e-51
2.5038e-52
3.97763e-52
3.39324e-53
4.57794e-53
3.8986e-54
5.00464e-54
4.29008e-55
4.89457e-55
1.26343e-55
4.15307e-56
1.18478e-54
-4.48507e-56
1.66731e-53
-5.43682e-55
2.43614e-52
-5.9252e-54
3.58638e-51
-6.10539e-53
5.33607e-50
-6.46048e-52
7.79759e-49
-6.80359e-51
1.12252e-47
-8.03862e-50
1.55709e-46
-9.94231e-49
2.10184e-45
-1.34813e-47
2.6996e-44
-1.81363e-46
3.36702e-43
-2.4417e-45
3.9396e-42
-3.11317e-44
4.49546e-41
-3.81788e-43
4.69672e-40
-4.1901e-42
4.84166e-39
-3.94682e-41
4.33811e-38
-1.58479e-40
3.92198e-37
4.41686e-39
2.62825e-36
1.73708e-37
1.831e-35
3.63189e-36
1.67303e-35
5.54993e-35
1.76754e-35
2.11198e-33
5.5616e-35
-1.51533e-35
1.25474e-36
-4.99576e-37
7.06406e-37
-3.52246e-37
1.16112e-37
8.65949e-38
2.38223e-38
1.52481e-38
3.1576e-39
2.54058e-39
4.43677e-40
2.85292e-40
5.01281e-41
3.23763e-41
5.66345e-42
3.13023e-42
5.61727e-43
3.00735e-43
5.45225e-44
2.62397e-44
4.84673e-45
2.24407e-45
4.18386e-46
1.7931e-46
3.3852e-47
1.39276e-47
2.64527e-48
9.82847e-49
1.93272e-49
9.35269e-50
1.7144e-50
3.3582e-50
3.3391e-51
6.48988e-51
5.83914e-52
1.32745e-51
1.0974e-52
1.91216e-52
1.5666e-53
2.6366e-53
2.12103e-54
3.04047e-54
2.44292e-55
3.32749e-55
2.69274e-56
3.25883e-56
7.53805e-57
2.63707e-57
6.65496e-56
-5.37001e-57
9.02228e-55
-7.85862e-56
1.26985e-53
-1.12958e-54
1.80605e-52
-1.64619e-53
2.60016e-51
-2.46648e-52
3.69287e-50
-3.69386e-51
5.14915e-49
-5.55179e-50
6.94606e-48
-8.15039e-49
9.02482e-47
-1.17581e-47
1.12223e-45
-1.62954e-46
1.32957e-44
-2.19646e-45
1.49426e-43
-2.79737e-44
1.58202e-42
-3.41765e-43
1.56855e-41
-3.71266e-42
1.43086e-40
-3.36198e-41
1.19335e-39
-8.9057e-41
8.46902e-39
5.31924e-39
5.17272e-38
1.8442e-37
1.58141e-37
3.74178e-36
8.03411e-37
5.57931e-35
1.36912e-36
3.86287e-35
5.59319e-35
7.53077e-37
1.19977e-37
-3.92632e-37
-2.02379e-38
-4.61902e-38
1.52874e-39
8.07754e-39
1.62713e-39
1.84587e-39
3.10653e-40
3.33765e-40
5.53832e-41
4.02675e-41
7.07352e-42
4.74867e-42
8.74849e-43
4.77143e-43
9.19803e-44
4.69821e-44
9.34224e-45
4.20087e-45
8.58063e-46
3.65522e-46
7.60343e-47
2.96985e-47
6.27589e-48
2.33906e-48
4.99547e-49
1.72067e-49
3.74652e-50
1.38612e-50
2.92441e-51
2.6064e-51
3.33201e-52
4.3504e-52
4.4231e-53
8.41358e-53
7.231e-54
1.19946e-53
9.89434e-55
1.64957e-54
1.31489e-55
1.90578e-55
1.49998e-56
2.08972e-56
6.40518e-58
2.05992e-57
-1.76605e-56
3.20143e-58
-3.11947e-55
2.47887e-57
-5.29898e-54
4.52963e-56
-8.76214e-53
8.03105e-55
-1.40227e-51
1.37362e-53
-2.18367e-50
2.27708e-52
-3.27754e-49
3.64372e-51
-4.78495e-48
5.66369e-50
-6.69081e-47
8.4725e-49
-9.10367e-46
1.23234e-47
-1.17501e-44
1.71444e-46
-1.47931e-43
2.32234e-45
-1.73946e-42
2.97997e-44
-2.00923e-41
3.74371e-43
-2.10872e-40
4.40869e-42
-2.21013e-39
5.21039e-41
-1.98467e-38
5.82459e-40
-1.83566e-37
7.035e-39
-1.21662e-36
8.1872e-38
-8.74383e-36
1.00863e-36
-7.65667e-36
9.67909e-36
7.77072e-36
6.85788e-35
9.69309e-36
8.6635e-36
8.75051e-39
-6.81061e-38
-5.35947e-39
-8.158e-39
-5.01412e-40
4.5445e-40
6.15082e-41
1.83943e-40
2.15028e-41
4.12315e-41
4.76237e-42
5.50004e-42
6.72308e-43
7.03029e-43
8.84553e-44
7.45011e-44
9.7161e-45
7.65487e-45
1.01754e-45
7.05937e-46
9.58274e-47
6.29678e-47
8.65197e-48
5.21426e-48
7.25824e-49
4.17262e-49
5.85445e-50
3.1406e-50
4.45472e-51
2.38222e-51
3.38882e-52
2.65048e-52
3.12147e-53
3.35957e-53
3.37172e-54
5.56575e-54
4.71629e-55
7.58208e-55
6.07978e-56
1.0215e-55
7.85504e-57
1.17262e-56
9.03463e-58
1.28232e-57
3.38836e-58
1.41217e-58
4.32144e-57
3.00653e-58
7.46787e-56
5.29878e-57
1.25638e-54
9.45659e-56
2.05772e-53
1.64623e-54
3.26232e-52
2.783e-53
5.02627e-51
4.58373e-52
7.46119e-50
7.30704e-51
1.07466e-48
1.13384e-49
1.48158e-47
1.6949e-48
1.97973e-46
2.465e-47
2.50733e-45
3.43032e-46
3.07816e-44
4.64812e-45
3.52567e-43
5.96757e-44
3.92561e-42
7.49697e-43
3.96557e-41
8.82086e-42
3.92679e-40
1.03785e-40
3.32577e-39
1.14615e-39
2.80022e-38
1.35204e-38
1.69179e-37
1.51408e-37
1.01272e-36
1.80476e-36
8.70191e-37
1.66979e-35
-8.64794e-37
1.18032e-34
1.6681e-35
-9.96537e-37
9.26518e-40
-6.60444e-39
-9.23835e-40
-8.95776e-40
-1.15e-40
-1.98803e-42
-5.55526e-42
1.25708e-41
9.06887e-43
3.55383e-42
3.61129e-43
5.21384e-43
5.99211e-44
7.09142e-44
8.66262e-45
7.85788e-45
1.0066e-45
8.33545e-46
1.09827e-46
7.88905e-47
1.06518e-47
7.17511e-48
9.83989e-49
6.04186e-49
8.40243e-50
4.89907e-50
6.87607e-51
3.74042e-51
5.30021e-52
2.81111e-52
3.99966e-53
2.54387e-53
3.24884e-54
2.63321e-54
2.92732e-55
3.67033e-55
3.3411e-56
4.68367e-56
3.87608e-57
6.11037e-57
4.78836e-58
6.93511e-58
1.79418e-58
7.55213e-59
2.33672e-57
1.03702e-59
4.15901e-56
5.67499e-59
7.23721e-55
1.02939e-57
1.2235e-53
1.84041e-56
2.01489e-52
3.21085e-55
3.21301e-51
5.44109e-54
4.98489e-50
8.988e-53
7.45524e-49
1.4372e-51
1.08381e-47
2.23844e-50
1.50917e-46
3.35929e-49
2.04249e-45
4.91172e-48
2.62251e-44
6.88469e-47
3.27854e-43
9.46845e-46
3.82924e-42
1.25964e-44
4.3805e-41
1.74088e-43
4.55639e-40
2.59652e-42
4.70895e-39
4.76664e-41
4.17669e-38
1.01186e-39
3.77955e-37
2.27172e-38
2.46162e-36
4.65149e-37
1.69864e-35
8.09381e-36
1.48675e-35
1.09213e-34
-1.48561e-35
2.35773e-34
1.09039e-34
-1.67303e-35
8.01719e-41
-7.97143e-40
-8.95534e-41
-1.10859e-40
-1.25702e-41
-6.97135e-42
-1.1188e-42
4.17379e-43
-3.34608e-45
2.65722e-43
2.18119e-44
4.5676e-44
4.39411e-45
6.82486e-45
6.95312e-46
7.99303e-46
8.51008e-47
8.83198e-47
9.6178e-48
8.60619e-48
9.57556e-49
8.0072e-49
9.02097e-50
6.8621e-50
7.82761e-51
5.64329e-51
6.4874e-52
4.36338e-52
5.05749e-53
3.28021e-53
3.82375e-54