/*--------------------------------*- C++ -*----------------------------------*\
| =========                 |                                                 |
| \\      /  F ield         | OpenFOAM: The Open Source CFD Toolbox           |
|  \\    /   O peration     | Version:  2.4.0                                 |
|   \\  /    A nd           | Web:      www.OpenFOAM.org                      |
|    \\/     M anipulation  |                                                 |
\*---------------------------------------------------------------------------*/
FoamFile
{
    version     2.0;
    format      ascii;
    class       volVectorField;
    location    "0.6";
    object      U;
}
// * * * * * * * * * * * * * * * * * * * * * * * * * * * * * * * * * * * * * //

dimensions      [0 1 -1 0 0 0 0];

internalField   nonuniform List<vector> 
7700
(
(7.33818e-36 2.20266e-36 0)
(7.05052e-35 1.57687e-35 0)
(3.64429e-34 1.2366e-34 0)
(3.9018e-33 9.61905e-35 0)
(3.60146e-33 -2.38249e-34 0)
(-3.60025e-33 -2.38e-34 0)
(-3.8933e-33 9.88198e-35 0)
(-2.86249e-34 1.41841e-34 0)
(3.65534e-34 1.55488e-34 0)
(4.26732e-33 2.24884e-34 0)
(7.58132e-33 -1.23407e-34 0)
(4.43503e-34 -3.34439e-34 0)
(-3.15775e-33 9.61902e-35 0)
(3.68052e-33 2.19846e-34 0)
(3.91038e-33 -9.88479e-35 0)
(3.65534e-34 -1.23941e-34 0)
(7.06905e-35 -1.58044e-35 0)
(7.5034e-36 -2.38077e-36 0)
(9.91628e-37 -2.51822e-37 0)
(1.00275e-37 -2.814e-38 0)
(1.08235e-38 -2.66855e-39 0)
(1.00658e-39 -2.54876e-40 0)
(9.45129e-41 -2.20073e-41 0)
(8.73653e-42 -1.72549e-42 0)
(8.78187e-42 1.73696e-42 0)
(9.51366e-41 2.21445e-41 0)
(1.01394e-39 2.56601e-40 0)
(1.09098e-38 2.68867e-39 0)
(1.01186e-37 2.83726e-38 0)
(1.00143e-36 2.54232e-37 0)
(7.59266e-36 2.4062e-36 0)
(7.15798e-35 1.60276e-35 0)
(3.72024e-34 1.26065e-34 0)
(3.97337e-33 1.12215e-34 0)
(3.97337e-33 -1.12215e-34 0)
(3.72024e-34 -1.26065e-34 0)
(7.15798e-35 -1.60276e-35 0)
(7.59266e-36 -2.4062e-36 0)
(1.00143e-36 -2.54232e-37 0)
(1.01186e-37 -2.8373e-38 0)
(1.09081e-38 -2.6921e-39 0)
(1.00203e-39 -2.81014e-40 0)
(4.17464e-41 -1.93045e-40 0)
(-2.48853e-40 -7.71034e-40 0)
(1.28464e-41 -3.80107e-39 0)
(3.09885e-40 -5.25881e-40 0)
(2.07692e-36 -1.00191e-36 0)
(1.79196e-35 -8.26512e-36 0)
(9.22745e-35 -6.48061e-35 0)
(6.52565e-34 -5.03214e-35 0)
(5.76351e-34 1.24719e-34 0)
(-5.75991e-34 1.24597e-34 0)
(-6.50083e-34 -5.16415e-35 0)
(-7.21135e-35 -7.42904e-35 0)
(9.26049e-35 -8.14894e-35 0)
(7.45167e-34 -1.17658e-34 0)
(1.24904e-33 6.46827e-35 0)
(1.127e-34 1.7504e-34 0)
(-4.63588e-34 -5.03213e-35 0)
(5.96772e-34 -1.15126e-34 0)
(6.55072e-34 5.16548e-35 0)
(9.26049e-35 6.49435e-35 0)
(1.79812e-35 8.28759e-36 0)
(2.18478e-36 1.19839e-36 0)
(2.94134e-37 1.23198e-37 0)
(3.16145e-38 1.32835e-38 0)
(3.4735e-39 1.22561e-39 0)
(3.3416e-40 1.14061e-40 0)
(3.18445e-41 9.64265e-42 0)
(3.01103e-42 7.43004e-43 0)
(3.02705e-42 -7.47791e-43 0)
(3.20616e-41 -9.70078e-42 0)
(3.36694e-40 -1.14803e-40 0)
(3.50252e-39 -1.23445e-39 0)
(3.19164e-38 -1.33878e-38 0)
(2.97268e-37 -1.24308e-37 0)
(2.21286e-36 -1.21043e-36 0)
(1.82431e-35 -8.39727e-36 0)
(9.44886e-35 -6.60162e-35 0)
(6.70805e-34 -5.87173e-35 0)
(6.70805e-34 5.87173e-35 0)
(9.44886e-35 6.60162e-35 0)
(1.82431e-35 8.39727e-36 0)
(2.21286e-36 1.21043e-36 0)
(2.97267e-37 1.24307e-37 0)
(3.19138e-38 1.33845e-38 0)
(3.48403e-39 1.20503e-39 0)
(2.07089e-40 -9.84229e-41 0)
(-5.52716e-40 -1.50954e-39 0)
(-2.84547e-39 -7.02275e-39 0)
(1.25641e-40 -3.51666e-38 0)
(3.33884e-39 -4.85839e-39 0)
(5.15384e-37 -2.93588e-37 0)
(3.70804e-36 -2.33525e-36 0)
(1.3865e-35 -1.49015e-35 0)
(7.58729e-35 -1.08285e-35 0)
(6.52821e-35 2.84597e-35 0)
(-6.51848e-35 2.84208e-35 0)
(-7.52765e-35 -1.12215e-35 0)
(-9.6276e-36 -1.75972e-35 0)
(1.39532e-35 -1.96199e-35 0)
(8.9825e-35 -2.64809e-35 0)
(1.45381e-34 1.48621e-35 0)
(1.81714e-35 3.92881e-35 0)
(-4.70927e-35 -1.08285e-35 0)
(6.95874e-35 -2.57294e-35 0)
(7.6476e-35 1.12258e-35 0)
(1.39532e-35 1.49454e-35 0)
(3.72135e-36 2.34208e-36 0)
(5.17164e-37 3.54206e-37 0)
(7.82375e-38 3.92812e-38 0)
(9.00018e-39 4.34719e-39 0)
(1.04513e-39 4.17571e-40 0)
(1.04436e-40 3.96185e-41 0)
(1.0264e-41 3.43742e-42 0)
(9.94639e-43 2.68579e-43 0)
(1.00009e-42 -2.70368e-43 0)
(1.03369e-41 -3.45884e-42 0)
(1.05271e-40 -3.98869e-41 0)
(1.05446e-39 -4.20714e-40 0)
(9.0942e-39 -4.38333e-39 0)
(7.91763e-38 -3.96585e-38 0)
(5.25099e-37 -3.58128e-37 0)
(3.79038e-36 -2.37694e-36 0)
(1.43901e-35 -1.52595e-35 0)
(7.96621e-35 -1.3205e-35 0)
(7.96621e-35 1.3205e-35 0)
(1.43901e-35 1.52595e-35 0)
(3.79038e-36 2.37694e-36 0)
(5.25098e-37 3.58128e-37 0)
(7.91738e-38 3.96557e-38 0)
(9.07194e-39 4.35664e-39 0)
(8.93626e-40 1.82741e-40 0)
(-1.03607e-39 -1.70405e-39 0)
(-5.20696e-39 -1.25962e-38 0)
(-2.57885e-38 -5.92235e-38 0)
(1.01834e-39 -3.01033e-37 0)
(2.98431e-38 -4.14526e-38 0)
(8.82604e-38 -8.20186e-38 0)
(5.49724e-37 -5.91735e-37 0)
(1.52614e-36 -3.52577e-36 0)
(6.70015e-36 -2.50563e-36 0)
(5.652e-36 6.73176e-36 0)
(-5.63419e-36 6.72043e-36 0)
(-6.59939e-36 -2.6145e-36 0)
(-8.88209e-37 -4.21637e-36 0)
(1.54212e-36 -4.72239e-36 0)
(8.24202e-36 -6.23869e-36 0)
(1.29878e-35 3.51392e-36 0)
(2.17628e-36 9.23732e-36 0)
(-3.47227e-36 -2.50555e-36 0)
(6.30201e-36 -6.03081e-36 0)
(6.80211e-36 2.61583e-36 0)
(1.54212e-36 3.53834e-36 0)
(5.51694e-37 5.93516e-37 0)
(8.63655e-38 9.76194e-38 0)
(1.41586e-38 1.14767e-38 0)
(1.72193e-39 1.34008e-39 0)
(2.0751e-40 1.33862e-40 0)
(2.13857e-41 1.31232e-41 0)
(2.14779e-42 1.16736e-42 0)
(2.12432e-43 9.29617e-44 0)
(2.13625e-43 -9.36e-44 0)
(2.16354e-42 -1.1749e-42 0)
(2.15634e-41 -1.32161e-41 0)
(2.09459e-40 -1.34927e-40 0)
(1.74114e-39 -1.35202e-39 0)
(1.43444e-38 -1.15972e-38 0)
(8.78756e-38 -9.88233e-38 0)
(5.64087e-37 -6.03626e-37 0)
(1.61391e-36 -3.62421e-36 0)
(7.26398e-36 -3.10904e-36 0)
(7.26398e-36 3.10904e-36 0)
(1.61391e-36 3.62421e-36 0)
(5.64087e-37 6.03626e-37 0)
(8.78734e-38 9.88212e-38 0)
(1.43241e-38 1.15756e-38 0)
(1.56081e-39 1.15037e-39 0)
(-1.10735e-39 -1.68586e-39 0)
(-9.453e-39 -1.35171e-38 0)
(-4.40316e-38 -9.95192e-38 0)
(-2.21095e-37 -4.77829e-37 0)
(7.54247e-39 -2.4777e-36 0)
(2.52009e-37 -3.3929e-37 0)
(1.17046e-38 -2.86835e-38 0)
(7.91442e-38 -1.08121e-37 0)
(1.43446e-37 -5.79717e-37 0)
(4.23528e-37 -3.99958e-37 0)
(3.47236e-37 1.09973e-36 0)
(-3.44133e-37 1.09763e-36 0)
(-4.07292e-37 -4.19594e-37 0)
(-5.11721e-38 -6.98569e-37 0)
(1.4578e-37 -7.86448e-37 0)
(5.68993e-37 -1.01448e-36 0)
(8.61926e-37 5.74402e-37 0)
(2.37001e-37 1.49922e-36 0)
(-1.09574e-37 -3.99375e-37 0)
(4.41099e-37 -9.75973e-37 0)
(4.39436e-37 4.1986e-37 0)
(1.4578e-37 5.79141e-37 0)
(7.83844e-38 1.03953e-37 0)
(1.35293e-38 1.80244e-38 0)
(2.39479e-39 2.2228e-39 0)
(3.04311e-40 2.6864e-40 0)
(3.79465e-41 2.76676e-41 0)
(4.00877e-42 2.77238e-42 0)
(4.10493e-43 2.5153e-43 0)
(4.12735e-44 2.03012e-44 0)
(4.151e-44 -2.04441e-44 0)
(4.13584e-43 -2.53199e-43 0)
(4.04323e-42 -2.79267e-42 0)
(3.83183e-41 -2.78968e-41 0)
(3.07903e-40 -2.71157e-40 0)
(2.42865e-39 -2.24765e-39 0)
(1.37949e-38 -1.82649e-38 0)
(8.04668e-38 -1.05901e-37 0)
(1.56838e-37 -5.94887e-37 0)
(5.0368e-37 -5.05249e-37 0)
(5.0368e-37 5.05249e-37 0)
(1.56838e-37 5.94887e-37 0)
(8.04652e-38 1.059e-37 0)
(1.37784e-38 1.82509e-38 0)
(2.27522e-39 2.09965e-39 0)
(-1.07457e-39 -1.12409e-39 0)
(-1.01967e-38 -1.27511e-38 0)
(-7.49546e-38 -9.66198e-38 0)
(-3.55824e-37 -7.2576e-37 0)
(-1.82391e-36 -3.58328e-36 0)
(5.09012e-38 -1.89631e-35 0)
(2.0436e-36 -2.59148e-36 0)
(-2.01633e-38 -1.12149e-37 0)
(1.91916e-38 -5.38718e-38 0)
(1.54627e-38 -1.16012e-37 0)
(1.61285e-38 -6.67799e-38 0)
(1.05947e-38 1.72769e-37 0)
(-9.62758e-39 1.73135e-37 0)
(-1.1579e-38 -6.56763e-38 0)
(-2.21313e-40 -1.11142e-37 0)
(1.25904e-38 -1.25426e-37 0)
(2.64104e-38 -1.59808e-37 0)
(3.58932e-38 9.06026e-38 0)
(2.44554e-38 2.35809e-37 0)
(1.43867e-38 -6.21659e-38 0)
(2.24229e-38 -1.5316e-37 0)
(1.60961e-38 6.57106e-38 0)
(1.25902e-38 9.14505e-38 0)
(1.00914e-38 1.7043e-38 0)
(1.87929e-39 3.10422e-39 0)
(3.51212e-40 3.96892e-40 0)
(4.6231e-41 4.95029e-41 0)
(5.91558e-42 5.22343e-42 0)
(6.3813e-43 5.33663e-43 0)
(6.63726e-44 4.91807e-44 0)
(6.77024e-45 4.01523e-45 0)
(6.80972e-45 -4.04404e-45 0)
(6.6884e-44 -4.95143e-44 0)
(6.43772e-43 -5.37676e-43 0)
(5.9756e-42 -5.2682e-42 0)
(4.68017e-41 -4.99866e-41 0)
(3.56477e-40 -4.01573e-40 0)
(1.91947e-39 -3.1484e-39 0)
(1.03951e-38 -1.73894e-38 0)
(1.41064e-38 -9.41473e-38 0)
(2.42153e-38 -7.955e-38 0)
(2.42153e-38 7.955e-38 0)
(1.41054e-38 9.41467e-38 0)
(1.03844e-38 1.73814e-38 0)
(1.80634e-39 3.06029e-39 0)
(-7.08068e-40 -5.41085e-40 0)
(-9.6802e-39 -8.96239e-39 0)
(-7.32301e-38 -8.41216e-38 0)
(-5.47358e-37 -6.50725e-37 0)
(-2.66932e-36 -5.03319e-36 0)
(-1.39768e-35 -2.57941e-35 0)
(2.86018e-37 -1.40758e-34 0)
(1.53298e-35 -1.90838e-35 0)
(-1.65035e-37 -8.25667e-37 0)
(8.09792e-38 -2.76143e-37 0)
(2.85823e-38 -1.99615e-37 0)
(1.75011e-38 -4.23591e-38 0)
(2.2141e-39 1.76546e-38 0)
(1.97309e-39 2.30551e-38 0)
(1.65801e-39 -9.07263e-39 0)
(4.8758e-40 -1.54511e-38 0)
(1.11114e-39 -1.74697e-38 0)
(-1.60436e-40 -2.19787e-38 0)
(-9.99147e-40 1.24836e-38 0)
(2.62548e-39 3.23854e-38 0)
(3.88963e-39 -8.44725e-39 0)
(3.19885e-40 -2.09907e-38 0)
(-9.64516e-40 8.97501e-39 0)
(1.10988e-39 1.26135e-38 0)
(1.28002e-39 2.43617e-39 0)
(2.5067e-40 4.6028e-40 0)
(4.87957e-41 6.06731e-41 0)
(6.59199e-42 7.7526e-42 0)
(8.61139e-43 8.35008e-43 0)
(9.44173e-44 8.66493e-44 0)
(9.94678e-45 8.09485e-45 0)
(1.02626e-45 6.6726e-46 0)
(1.03232e-45 -6.72132e-46 0)
(1.00248e-44 -8.15082e-45 0)
(9.52711e-44 -8.73162e-44 0)
(8.70124e-43 -8.42369e-43 0)
(6.67629e-42 -7.83103e-42 0)
(4.95605e-41 -6.142e-41 0)
(2.56381e-40 -4.67182e-40 0)
(1.32203e-39 -2.48892e-39 0)
(1.31002e-39 -1.30114e-38 0)
(5.15448e-41 -1.09354e-38 0)
(5.10722e-41 1.0935e-38 0)
(1.30389e-39 1.30079e-38 0)
(1.25433e-39 2.44607e-39 0)
(-4.66888e-40 -1.12804e-41 0)
(-6.84994e-39 -5.12649e-39 0)
(-6.42032e-38 -5.0424e-38 0)
(-4.93904e-37 -4.81263e-37 0)
(-3.79397e-36 -3.83586e-36 0)
(-1.91449e-35 -3.07557e-35 0)
(-1.03518e-34 -1.6617e-34 0)
(1.28681e-36 -9.33168e-34 0)
(1.10903e-34 -1.26741e-34 0)
(-1.09785e-36 -5.69202e-36 0)
(7.44426e-37 -1.92811e-36 0)
(2.30654e-37 -1.3559e-36 0)
(1.42595e-37 -2.4065e-37 0)
(2.53374e-38 -4.00548e-38 0)
(5.05842e-39 -2.36279e-39 0)
(9.89769e-40 -1.87532e-39 0)
(1.68806e-40 -2.13081e-39 0)
(1.117e-40 -2.33875e-39 0)
(-2.24316e-40 -2.90941e-39 0)
(-4.40841e-40 1.65325e-39 0)
(2.85668e-40 4.28113e-39 0)
(5.83561e-40 -1.10834e-39 0)
(-1.06462e-40 -2.77021e-39 0)
(-2.90013e-40 1.18244e-39 0)
(1.03029e-40 1.67193e-39 0)
(1.53454e-40 3.30891e-40 0)
(3.11527e-41 6.44171e-41 0)
(6.2404e-42 8.68997e-42 0)
(8.60897e-43 1.13251e-42 0)
(1.14299e-43 1.23953e-43 0)
(1.2706e-44 1.30277e-44 0)
(1.35277e-45 1.23023e-45 0)
(1.40966e-46 1.02202e-46 0)
(1.41809e-46 -1.02958e-46 0)
(1.36355e-45 -1.23887e-45 0)
(1.28231e-44 -1.31298e-44 0)
(1.15519e-43 -1.25071e-43 0)
(8.72227e-43 -1.14429e-42 0)
(6.34173e-42 -8.80068e-42 0)
(3.18965e-41 -6.54232e-41 0)
(1.58807e-40 -3.38423e-40 0)
(1.27695e-40 -1.72741e-39 0)
(-1.69664e-40 -1.44674e-39 0)
(-1.722e-40 1.44527e-39 0)
(9.45302e-41 1.71021e-39 0)
(-2.11209e-40 1.28654e-40 0)
(-3.97296e-39 -2.30889e-39 0)
(-3.88093e-38 -2.62205e-38 0)
(-3.68664e-37 -2.60614e-37 0)
(-2.91107e-36 -2.56755e-36 0)
(-2.3057e-35 -2.13228e-35 0)
(-1.21546e-34 -1.80745e-34 0)
(-6.77903e-34 -1.0498e-33 0)
(1.99767e-36 -6.22619e-33 0)
(7.02374e-34 -8.31029e-34 0)
(-5.46707e-36 -3.81498e-35 0)
(7.22811e-36 -1.22508e-35 0)
(1.98354e-36 -8.58667e-36 0)
(1.06392e-36 -1.47813e-36 0)
(1.82459e-37 -2.56549e-37 0)
(3.27802e-38 -3.15541e-38 0)
(4.24142e-39 -4.05865e-39 0)
(5.4011e-40 -6.61402e-40 0)
(6.64966e-41 -3.29293e-40 0)
(-3.15102e-41 -3.60225e-40 0)
(-6.78349e-41 2.02464e-40 0)
(3.16844e-41 5.24066e-40 0)
(7.40571e-41 -1.34706e-40 0)
(-2.00072e-41 -3.38625e-40 0)
(-4.30313e-41 1.44249e-40 0)
(1.03038e-41 2.05241e-40 0)
(1.78633e-41 4.15409e-41 0)
(3.71379e-42 8.27529e-42 0)
(7.59824e-43 1.13835e-42 0)
(1.0651e-43 1.50699e-43 0)
(1.43242e-44 1.67212e-44 0)
(1.60991e-45 1.77601e-45 0)
(1.72873e-46 1.6929e-46 0)
(1.81591e-47 1.41571e-47 0)
(1.82688e-47 -1.42632e-47 0)
(1.74269e-46 -1.70494e-46 0)
(1.62498e-45 -1.79016e-45 0)
(1.44799e-44 -1.68749e-44 0)
(1.07943e-43 -1.52304e-43 0)
(7.72477e-43 -1.15327e-42 0)
(3.80522e-42 -8.40905e-42 0)
(1.85075e-41 -4.25268e-41 0)
(1.31482e-41 -2.1237e-40 0)
(-3.0169e-41 -1.77565e-40 0)
(-4.25631e-41 1.72487e-40 0)
(-1.5082e-40 1.5245e-40 0)
(-1.83561e-39 -6.96509e-40 0)
(-2.04294e-38 -8.47997e-39 0)
(-2.02082e-37 -9.56673e-38 0)
(-1.97345e-36 -9.78076e-37 0)
(-1.60919e-35 -1.00457e-35 0)
(-1.33103e-34 -8.91801e-35 0)
(-7.38855e-34 -8.18795e-34 0)
(-4.37515e-33 -5.37197e-33 0)
(-1.76259e-35 -3.31832e-32 0)
(4.38062e-33 -4.49225e-33 0)
(-1.05265e-35 -2.20538e-34 0)
(7.44226e-35 -7.47323e-35 0)
(1.69096e-35 -5.47122e-35 0)
(7.05137e-36 -8.9771e-36 0)
(1.1363e-36 -1.49773e-36 0)
(1.94e-37 -1.79095e-37 0)
(2.40933e-38 -2.13503e-38 0)
(2.96765e-39 -2.19544e-39 0)
(3.11266e-40 -2.49363e-40 0)
(2.69267e-41 -6.12482e-41 0)
(-5.42695e-42 2.21352e-41 0)
(3.67498e-42 6.1358e-41 0)
(8.47448e-42 -1.57278e-41 0)
(-2.54646e-42 -3.96878e-41 0)
(-5.17512e-42 1.6881e-41 0)
(1.05324e-42 2.41336e-41 0)
(1.97421e-42 4.96848e-42 0)
(4.1824e-43 1.00715e-42 0)
(8.69411e-44 1.40611e-43 0)
(1.23532e-44 1.88371e-44 0)
(1.6788e-45 2.112e-45 0)
(1.90485e-46 2.2611e-46 0)
(2.06024e-47 2.17058e-47 0)
(2.1794e-48 1.82407e-48 0)
(2.1926e-48 -1.83787e-48 0)
(2.07692e-47 -2.1862e-47 0)
(1.92268e-46 -2.27938e-46 0)
(1.69697e-45 -2.13179e-45 0)
(1.25164e-44 -1.90427e-44 0)
(8.83291e-44 -1.42516e-43 0)
(4.27443e-43 -1.02419e-42 0)
(2.0278e-42 -5.09519e-42 0)
(1.09697e-42 -2.50744e-41 0)
(-7.44919e-42 -2.18975e-41 0)
(-5.1858e-41 5.97631e-42 0)
(-5.93016e-40 -1.65397e-40 0)
(-6.81441e-39 -2.387e-39 0)
(-7.65071e-38 -2.80038e-38 0)
(-7.74447e-37 -3.25594e-37 0)
(-7.78403e-36 -3.46178e-36 0)
(-6.6005e-35 -3.81189e-35 0)
(-5.7048e-34 -3.72717e-34 0)
(-3.38286e-33 -3.90325e-33 0)
(-2.10555e-32 -2.9895e-32 0)
(-2.0715e-34 -2.08444e-31 0)
(1.94313e-32 -2.64881e-32 0)
(-5.43181e-36 -1.6547e-36 0)
(-5.63279e-35 -1.23694e-35 0)
(-3.00654e-34 -1.07107e-34 0)
(-3.54593e-33 -8.54396e-35 0)
(-3.29679e-33 2.06888e-34 0)
(3.29679e-33 2.06888e-34 0)
(3.54593e-33 -8.54396e-35 0)
(3.00656e-34 -1.07106e-34 0)
(5.63747e-35 -1.23731e-35 0)
(5.49641e-36 -1.77544e-36 0)
(6.95374e-37 -1.73476e-37 0)
(6.46375e-38 -1.85542e-38 0)
(-3.29155e-43 -3.25323e-39 0)
(-6.46417e-38 -1.85552e-38 0)
(-6.95426e-37 -1.73488e-37 0)
(-5.497e-36 -1.77558e-36 0)
(-5.63815e-35 -1.23747e-35 0)
(-3.00721e-34 -1.07125e-34 0)
(-3.54663e-33 -8.56147e-35 0)
(-3.30235e-33 2.05094e-34 0)
(3.23971e-33 1.9434e-34 0)
(3.23971e-33 -1.9434e-34 0)
(-3.30235e-33 -2.05094e-34 0)
(-3.54663e-33 8.56147e-35 0)
(-3.00721e-34 1.07125e-34 0)
(-5.63815e-35 1.23747e-35 0)
(-5.49758e-36 1.77543e-36 0)
(-7.02218e-37 1.71838e-37 0)
(-1.30973e-37 -1.35129e-40 0)
(-7.08277e-37 -1.73328e-37 0)
(-5.55605e-36 -1.7922e-36 0)
(-5.70111e-35 -1.25296e-35 0)
(-3.05516e-34 -1.08725e-34 0)
(-3.59744e-33 -9.61938e-35 0)
(-3.54593e-33 1.10536e-34 0)
(-4.80181e-40 2.178e-34 0)
(3.54592e-33 1.10535e-34 0)
(3.59739e-33 -9.62073e-35 0)
(3.04821e-34 -1.08753e-34 0)
(5.35116e-35 -1.14021e-35 0)
(-1.54028e-36 7.55208e-37 0)
(-1.42796e-35 6.4822e-36 0)
(-7.64758e-35 5.61201e-35 0)
(-5.96655e-34 4.46971e-35 0)
(-5.33062e-34 -1.0829e-34 0)
(5.33062e-34 -1.0829e-34 0)
(5.96656e-34 4.46971e-35 0)
(7.64767e-35 5.612e-35 0)
(1.42964e-35 6.48748e-36 0)
(1.60073e-36 8.91413e-37 0)
(2.0555e-37 8.46677e-38 0)
(2.03451e-38 8.72968e-39 0)
(-1.1441e-43 1.49056e-39 0)
(-2.03466e-38 8.73009e-39 0)
(-2.05568e-37 8.4673e-38 0)
(-1.60093e-36 8.91479e-37 0)
(-1.42985e-35 6.48823e-36 0)
(-7.64974e-35 5.61287e-35 0)
(-5.96863e-34 4.47825e-35 0)
(-5.34683e-34 -1.0739e-34 0)
(5.18557e-34 -1.01717e-34 0)
(5.18557e-34 1.01717e-34 0)
(-5.34683e-34 1.0739e-34 0)
(-5.96863e-34 -4.47825e-35 0)
(-7.64974e-35 -5.61287e-35 0)
(-1.42985e-35 -6.48823e-36 0)
(-1.60112e-36 -8.91412e-37 0)
(-2.07742e-37 -8.39177e-38 0)
(-4.12528e-38 6.04473e-41 0)
(-2.09673e-37 8.46016e-38 0)
(-1.6195e-36 8.99326e-37 0)
(-1.44834e-35 6.56416e-36 0)
(-7.78904e-35 5.69347e-35 0)
(-6.09538e-34 5.03698e-35 0)
(-5.96656e-34 -5.78429e-35 0)
(-1.77909e-40 -1.1404e-34 0)
(5.96653e-34 -5.78424e-35 0)
(6.09519e-34 5.03741e-35 0)
(7.76653e-35 5.68965e-35 0)
(1.32301e-35 5.04372e-36 0)
(-3.8426e-37 2.20891e-37 0)
(-2.98737e-36 1.83784e-36 0)
(-1.15563e-35 1.29599e-35 0)
(-6.98953e-35 9.73399e-36 0)
(-6.09967e-35 -2.48262e-35 0)
(6.09967e-35 -2.48262e-35 0)
(6.98953e-35 9.73399e-36 0)
(1.15563e-35 1.29598e-35 0)
(2.98936e-36 1.83925e-36 0)
(3.81393e-37 2.63035e-37 0)
(5.50228e-38 2.6989e-38 0)
(5.81187e-39 2.85042e-39 0)
(-3.85152e-44 5.07048e-40 0)
(-5.81234e-39 2.85057e-39 0)
(-5.50285e-38 2.69908e-38 0)
(-3.81454e-37 2.63057e-37 0)
(-2.99001e-36 1.8395e-36 0)
(-1.15623e-35 1.29627e-35 0)
(-6.9951e-35 9.76123e-36 0)
(-6.1384e-35 -2.45603e-35 0)
(5.79517e-35 -2.29597e-35 0)
(5.79517e-35 2.29597e-35 0)
(-6.1384e-35 2.45603e-35 0)
(-6.9951e-35 -9.76123e-36 0)
(-1.15623e-35 -1.29627e-35 0)
(-2.99001e-36 -1.8395e-36 0)
(-3.81515e-37 -2.63034e-37 0)
(-5.56858e-38 -2.67338e-38 0)
(-1.17999e-38 2.08862e-41 0)
(-5.62665e-38 2.69661e-38 0)
(-3.86734e-37 2.65607e-37 0)
(-3.03911e-36 1.86364e-36 0)
(-1.1888e-35 1.31985e-35 0)
(-7.2553e-35 1.13346e-35 0)
(-6.98953e-35 -1.3467e-35 0)
(-2.95024e-41 -2.64514e-35 0)
(6.9895e-35 -1.34668e-35 0)
(7.25509e-35 1.13362e-35 0)
(1.18626e-35 1.3189e-35 0)
(2.89678e-36 1.43016e-36 0)
(-6.6338e-38 6.07711e-38 0)
(-4.46998e-37 4.66164e-37 0)
(-1.28027e-36 3.07265e-36 0)
(-6.23267e-36 2.2633e-36 0)
(-5.34446e-36 -5.88433e-36 0)
(5.34446e-36 -5.88433e-36 0)
(6.23267e-36 2.2633e-36 0)
(1.28024e-36 3.07265e-36 0)
(4.47073e-37 4.66738e-37 0)
(6.40369e-38 7.27623e-38 0)
(9.99568e-39 7.91095e-39 0)
(1.11421e-39 8.82265e-40 0)
(-8.33567e-45 1.63e-40 0)
(-1.11431e-39 8.82316e-40 0)
(-9.99686e-39 7.91158e-39 0)
(-6.40494e-38 7.27699e-38 0)
(-4.47203e-37 4.6682e-37 0)
(-1.28138e-36 3.07354e-36 0)
(-6.2428e-36 2.27129e-36 0)
(-5.40963e-36 -5.81068e-36 0)
(4.88726e-36 -5.4096e-36 0)
(4.88726e-36 5.4096e-36 0)
(-5.40963e-36 5.81068e-36 0)
(-6.2428e-36 -2.27129e-36 0)
(-1.28138e-36 -3.07354e-36 0)
(-4.47204e-37 -4.66819e-37 0)
(-6.4062e-38 -7.27623e-38 0)
(-1.01277e-38 -7.82888e-39 0)
(-2.26453e-39 6.92005e-42 0)
(-1.02428e-38 7.90335e-39 0)
(-6.50587e-38 7.35549e-38 0)
(-4.56062e-37 4.73847e-37 0)
(-1.33529e-36 3.13831e-36 0)
(-6.6247e-36 2.66438e-36 0)
(-6.23267e-36 -3.21276e-36 0)
(-3.16214e-42 -6.29259e-36 0)
(6.23265e-36 -3.21273e-36 0)
(6.62463e-36 2.66455e-36 0)
(1.33445e-36 3.13417e-36 0)
(4.48872e-37 3.58442e-37 0)
(-1.08455e-38 1.11459e-38 0)
(-6.41638e-38 8.17335e-38 0)
(-1.21313e-37 5.0363e-37 0)
(-4.04531e-37 3.62685e-37 0)
(-3.38786e-37 -9.6337e-37 0)
(3.38786e-37 -9.6337e-37 0)
(4.04531e-37 3.62685e-37 0)
(1.21303e-37 5.03633e-37 0)
(6.41191e-38 8.18637e-38 0)
(1.00805e-38 1.34596e-38 0)
(1.69761e-39 1.53512e-39 0)
(1.97321e-40 1.7718e-40 0)
(-1.63906e-45 3.37305e-41 0)
(-1.97341e-40 1.77191e-40 0)
(-1.69784e-39 1.53526e-39 0)
(-1.00828e-38 1.34612e-38 0)
(-6.41428e-38 8.18807e-38 0)
(-1.21505e-37 5.0381e-37 0)
(-4.06252e-37 3.64237e-37 0)
(-3.49068e-37 -9.49733e-37 0)
(2.72945e-37 -8.79954e-37 0)
(2.72945e-37 8.79954e-37 0)
(-3.49068e-37 9.49733e-37 0)
(-4.06252e-37 -3.64237e-37 0)
(-1.21505e-37 -5.0381e-37 0)
(-6.41431e-38 -8.18805e-38 0)
(-1.00852e-38 -1.34596e-38 0)
(-1.72183e-39 -1.51813e-39 0)
(-4.01419e-40 1.4601e-42 0)
(-1.74286e-39 1.53351e-39 0)
(-1.0261e-38 1.36182e-38 0)
(-6.56389e-38 8.32383e-38 0)
(-1.29864e-37 5.15718e-37 0)
(-4.60089e-37 4.32464e-37 0)
(-4.04531e-37 -5.29516e-37 0)
(1.32434e-44 -1.03454e-36 0)
(4.04532e-37 -5.29513e-37 0)
(4.60143e-37 4.32462e-37 0)
(1.30366e-37 5.14751e-37 0)
(6.75054e-38 6.20453e-38 0)
(-1.55313e-39 1.91429e-39 0)
(-8.32431e-39 1.34025e-38 0)
(-1.05022e-38 7.95929e-38 0)
(-1.50337e-38 5.66358e-38 0)
(-1.16624e-38 -1.52298e-37 0)
(1.16624e-38 -1.52298e-37 0)
(1.50336e-38 5.66359e-38 0)
(1.05002e-38 7.95945e-38 0)
(8.3114e-39 1.34334e-38 0)
(1.40506e-39 2.32327e-39 0)
(2.49633e-40 2.74648e-40 0)
(3.00181e-41 3.27247e-41 0)
(-2.71515e-46 6.37789e-42 0)
(-3.00213e-41 3.2727e-41 0)
(-2.4967e-40 2.74675e-40 0)
(-1.40543e-39 2.32358e-39 0)
(-8.31511e-39 1.34366e-38 0)
(-1.05309e-38 7.96272e-38 0)
(-1.5287e-38 5.69138e-38 0)
(-1.30982e-38 -1.49942e-37 0)
(3.0976e-39 -1.38586e-37 0)
(3.0976e-39 1.38586e-37 0)
(-1.30982e-38 1.49942e-37 0)
(-1.5287e-38 -5.69138e-38 0)
(-1.05309e-38 -7.96272e-38 0)
(-8.31515e-39 -1.34366e-38 0)
(-1.40581e-39 -2.32327e-39 0)
(-2.53418e-40 -2.71435e-40 0)
(-6.11157e-41 2.80991e-43 0)
(-2.56691e-40 2.74338e-40 0)
(-1.43247e-39 2.35247e-39 0)
(-8.53406e-39 1.36785e-38 0)
(-1.16826e-38 8.16727e-38 0)
(-2.21626e-38 6.79912e-38 0)
(-1.50336e-38 -8.40585e-38 0)
(7.1051e-44 -1.63901e-37 0)
(1.50347e-38 -8.40586e-38 0)
(2.21774e-38 6.79836e-38 0)
(1.18186e-38 8.14648e-38 0)
(9.08403e-39 1.00355e-38 0)
(-1.8463e-40 2.90022e-40 0)
(-1.06165e-39 1.8831e-39 0)
(-9.2506e-40 1.0982e-38 0)
(8.50524e-40 7.71991e-39 0)
(8.75504e-40 -2.1022e-38 0)
(-8.75452e-40 -2.1022e-38 0)
(-8.50185e-40 7.72052e-39 0)
(9.27388e-40 1.09869e-38 0)
(1.05904e-39 1.92185e-39 0)
(1.87833e-40 3.4501e-40 0)
(3.47534e-41 4.20462e-41 0)
(4.28463e-42 5.13282e-42 0)
(-4.14925e-47 1.02059e-42 0)
(-4.28512e-42 5.13319e-42 0)
(-3.47589e-41 4.20506e-41 0)
(-1.87888e-40 3.4506e-40 0)
(-1.05959e-39 1.92236e-39 0)
(-9.31783e-40 1.09921e-38 0)
(8.14885e-40 7.76307e-39 0)
(6.83229e-40 -2.06718e-38 0)
(-1.9698e-39 -1.90576e-38 0)
(-1.9698e-39 1.90576e-38 0)
(6.83229e-40 2.06718e-38 0)
(8.14885e-40 -7.76307e-39 0)
(-9.31784e-40 -1.09921e-38 0)
(-1.05959e-39 -1.92236e-39 0)
(-1.87943e-40 -3.4501e-40 0)
(-3.53055e-41 -4.15319e-41 0)
(-8.7291e-42 4.55939e-44 0)
(-3.57815e-41 4.19958e-41 0)
(-1.91741e-40 3.49578e-40 0)
(-1.08996e-39 1.95926e-39 0)
(-1.08432e-39 1.12945e-38 0)
(-5.19314e-41 9.33478e-39 0)
(8.50187e-40 -1.16493e-38 0)
(1.96072e-44 -2.26741e-38 0)
(-8.49935e-40 -1.16494e-38 0)
(5.48266e-41 9.33276e-39 0)
(1.10992e-39 1.12588e-38 0)
(1.19493e-39 1.41874e-39 0)
(5.50317e-40 4.51051e-40 0)
(-6.71655e-41 -6.29895e-41 0)
(-5.6974e-41 1.4148e-39 0)
(2.66176e-40 1.01042e-39 0)
(2.41327e-40 -2.78928e-39 0)
(-2.40854e-40 -2.78888e-39 0)
(-2.62584e-40 1.01531e-39 0)
(8.61836e-41 1.45713e-39 0)
(1.27305e-40 2.61194e-40 0)
(2.33772e-41 4.83494e-41 0)
(4.45049e-42 6.02935e-42 0)
(5.59948e-43 7.50846e-43 0)
(-5.73776e-48 1.51642e-43 0)
(-5.60015e-43 7.50903e-43 0)
(-4.45124e-42 6.03002e-42 0)
(-2.33846e-41 4.8357e-41 0)
(-1.27377e-40 2.6127e-40 0)
(-8.67581e-41 1.45788e-39 0)
(2.58064e-40 1.02142e-39 0)
(2.16943e-40 -2.73975e-39 0)
(-3.72723e-40 -2.52155e-39 0)
(-3.72723e-40 2.52155e-39 0)
(2.16943e-40 2.73975e-39 0)
(2.58064e-40 -1.02142e-39 0)
(-8.67581e-41 -1.45788e-39 0)
(-1.27378e-40 -2.6127e-40 0)
(-2.33921e-41 -4.83494e-41 0)
(-4.52389e-42 -5.95292e-42 0)
(-1.14141e-42 6.85258e-45 0)
(-4.587e-42 6.02177e-42 0)
(-2.38874e-41 4.90163e-41 0)
(-1.31254e-40 2.66547e-40 0)
(-1.05612e-40 1.50013e-39 0)
(1.54711e-40 1.23351e-39 0)
(2.62588e-40 -1.54991e-39 0)
(3.5892e-45 -3.01247e-39 0)
(-2.62545e-40 -1.54994e-39 0)
(-1.54261e-40 1.23311e-39 0)
(1.09473e-40 1.49449e-39 0)
(1.47041e-40 1.90772e-40 0)
(1.29853e-38 -2.04308e-39 0)
(1.02545e-39 -2.5238e-39 0)
(3.07314e-40 -1.34103e-40 0)
(7.31461e-41 9.27679e-41 0)
(3.89038e-41 -3.451e-40 0)
(-3.49332e-41 -3.42754e-40 0)
(-3.91371e-41 1.23652e-40 0)
(8.6222e-42 1.78962e-40 0)
(1.48422e-41 3.28098e-41 0)
(2.78941e-42 6.21713e-42 0)
(5.42418e-43 7.90541e-43 0)
(6.93119e-44 1.00012e-43 0)
(-7.40778e-49 2.04698e-44 0)
(-6.93205e-44 1.00019e-43 0)
(-5.42513e-43 7.90634e-43 0)
(-2.79034e-42 6.21817e-42 0)
(-1.4851e-41 3.28202e-41 0)
(-8.69139e-42 1.79063e-40 0)
(3.8612e-41 1.24467e-40 0)
(3.23901e-41 -3.3624e-40 0)
(-5.06443e-41 -3.08947e-40 0)
(-5.06443e-41 3.08947e-40 0)
(3.23901e-41 3.3624e-40 0)
(3.8612e-41 -1.24467e-40 0)
(-8.6914e-42 -1.79063e-40 0)
(-1.48511e-41 -3.28201e-41 0)
(-2.7913e-42 -6.21713e-42 0)
(-5.51627e-43 -7.80224e-43 0)
(-1.41351e-43 9.33716e-46 0)
(-5.5953e-43 7.89508e-43 0)
(-2.85251e-42 6.30579e-42 0)
(-1.53225e-41 3.35105e-41 0)
(-1.09293e-41 1.8448e-40 0)
(2.66306e-41 1.5096e-40 0)
(3.91635e-41 -1.90888e-40 0)
(5.5843e-46 -3.70562e-40 0)
(-3.91571e-41 -1.90893e-40 0)
(-2.65677e-41 1.50895e-40 0)
(1.14541e-41 1.83689e-40 0)
(1.7463e-41 2.37602e-41 0)
(2.40566e-37 6.75667e-38 0)
(2.48609e-38 -1.96123e-38 0)
(2.99637e-39 -2.33992e-39 0)
(2.73758e-40 -1.82892e-40 0)
(2.81077e-41 -5.54415e-41 0)
(-2.31858e-42 -4.1373e-41 0)
(-4.57804e-42 1.43797e-41 0)
(8.91295e-43 2.10469e-41 0)
(1.64257e-42 3.92567e-42 0)
(3.14396e-43 7.57189e-43 0)
(6.21109e-44 9.7715e-44 0)
(8.04196e-45 1.25104e-44 0)
(-7.83626e-50 2.58673e-45 0)
(-8.0428e-45 1.25115e-44 0)
(-6.21192e-44 9.7728e-44 0)
(-3.1446e-43 7.5734e-43 0)
(-1.6429e-42 3.92729e-42 0)
(-8.8904e-43 2.10642e-41 0)
(4.6607e-42 1.45525e-41 0)
(3.89963e-42 -3.95302e-41 0)
(-5.92727e-42 -3.6275e-41 0)
(-5.92727e-42 3.6275e-41 0)
(3.89963e-42 3.95302e-41 0)
(4.6607e-42 -1.45525e-41 0)
(-8.89041e-43 -2.10642e-41 0)
(-1.64292e-42 -3.92728e-42 0)
(-3.14572e-43 -7.57207e-43 0)
(-6.31882e-44 -9.64121e-44 0)
(-1.64063e-44 1.18825e-46 0)
(-6.41136e-44 9.75845e-44 0)
(-3.21665e-43 7.68283e-43 0)
(-1.69677e-42 4.01247e-42 0)
(-1.14021e-42 2.17224e-41 0)
(3.34147e-42 1.77088e-41 0)
(4.72388e-42 -2.25035e-41 0)
(7.61039e-47 -4.3643e-41 0)
(-4.72304e-42 -2.25043e-41 0)
(-3.33355e-42 1.76995e-41 0)
(1.20468e-42 2.1619e-41 0)
(1.95849e-42 2.82432e-42 0)
(2.80185e-34 -1.56344e-33 0)
(8.52861e-34 -4.29207e-34 0)
(1.67912e-34 -2.95183e-34 0)
(5.59018e-35 -4.61674e-35 0)
(8.24445e-36 -7.22814e-36 0)
(1.32863e-36 -8.29285e-37 0)
(1.58011e-37 -9.50903e-38 0)
(1.89157e-38 -9.40418e-39 0)
(1.92976e-39 -9.17742e-40 0)
(1.92605e-40 -8.44553e-41 0)
(1.6776e-41 -5.10437e-42 0)
(1.79485e-42 4.34246e-42 0)
(7.90888e-43 -1.29211e-42 0)
(-1.99486e-43 -3.16668e-42 0)
(-4.15827e-43 1.34459e-42 0)
(7.85269e-44 1.92953e-42 0)
(1.53305e-43 4.03848e-43 0)
(3.28893e-44 8.38044e-44 0)
(6.9108e-45 1.19078e-44 0)
(9.91065e-46 1.62295e-45 0)
(1.35631e-46 1.84553e-46 0)
(1.54869e-47 2.00089e-47 0)
(1.68266e-48 1.94165e-48 0)
(1.78758e-49 1.64581e-49 0)
(1.79572e-49 -1.65836e-49 0)
(1.69131e-48 -1.95569e-48 0)
(1.55473e-47 -2.0171e-47 0)
(1.35699e-46 -1.86272e-46 0)
(9.81735e-46 -1.64032e-45 0)
(6.67147e-45 -1.20615e-44 0)
(2.83636e-44 -8.50791e-44 0)
(8.0816e-44 -4.1174e-43 0)
(-9.88615e-43 -1.96749e-42 0)
(-1.51408e-41 -1.20335e-42 0)
(-1.9114e-40 7.70632e-42 0)
(-2.39839e-39 7.71625e-41 0)
(-2.80471e-38 8.89992e-40 0)
(-3.23556e-37 9.28619e-39 0)
(-3.36613e-36 7.77464e-38 0)
(-3.52891e-35 8.70955e-38 0)
(-3.11754e-34 -1.50643e-35 0)
(-2.89565e-33 -4.54546e-34 0)
(-1.83554e-32 -8.38158e-33 0)
(-1.34162e-31 -1.07668e-31 0)
(6.29301e-34 -7.86738e-31 0)
(1.3447e-31 -1.07738e-31 0)
(8.31868e-33 -9.095e-33 0)
(1.40199e-32 -3.15358e-33 0)
(2.12161e-33 -2.41623e-33 0)
(4.57735e-34 -3.31687e-34 0)
(5.87588e-35 -5.00129e-35 0)
(8.35356e-36 -5.43762e-36 0)
(9.31719e-37 -6.09271e-37 0)
(1.05772e-37 -5.85017e-38 0)
(1.04347e-38 -5.60276e-39 0)
(1.01538e-39 -4.87636e-40 0)
(9.00185e-41 -4.14696e-41 0)
(7.80296e-42 -2.96498e-42 0)
(6.71299e-43 -3.46754e-43 0)
(3.60766e-44 -2.45504e-43 0)
(-2.27155e-44 9.47958e-44 0)
(5.09778e-45 1.38379e-43 0)
(9.63296e-45 2.92815e-44 0)
(2.08979e-45 6.11564e-45 0)
(4.4535e-46 8.75284e-46 0)
(6.45961e-47 1.19759e-46 0)
(8.93317e-48 1.36762e-47 0)
(1.02918e-48 1.48576e-48 0)
(1.12679e-49 1.44488e-49 0)
(1.20644e-50 1.22583e-50 0)
(1.22541e-50 -1.22938e-50 0)
(1.15725e-49 -1.44554e-49 0)
(1.07455e-48 -1.48081e-48 0)
(9.61249e-48 -1.3517e-47 0)
(7.46526e-47 -1.1633e-46 0)
(5.93756e-46 -8.11562e-46 0)
(4.22838e-45 -5.04653e-45 0)
(3.99768e-44 -1.24959e-44 0)
(4.19893e-43 1.10842e-43 0)
(5.50772e-42 3.41749e-42 0)
(7.01532e-41 4.78331e-41 0)
(8.64296e-40 6.08829e-40 0)
(9.96211e-39 7.48182e-39 0)
(1.11854e-37 8.28763e-38 0)
(1.14436e-36 8.06358e-37 0)
(1.15395e-35 4.17271e-36 0)
(1.0001e-34 -5.83969e-35 0)
(8.73692e-34 -2.78109e-33 0)
(5.44792e-33 -6.00371e-32 0)
(3.52513e-32 -9.34245e-31 0)
(1.33945e-32 -9.92628e-30 0)
(-1.98426e-32 -9.37139e-31 0)
(1.38176e-31 -8.64643e-32 0)
(1.62821e-31 -8.84639e-33 0)
(1.76692e-32 -6.13123e-34 0)
(3.66453e-33 -3.19876e-35 0)
(4.23375e-34 -1.12068e-36 0)
(5.85572e-35 -1.20569e-38 0)
(6.22324e-36 2.98978e-39 0)
(6.92572e-37 3.84546e-40 0)
(6.6474e-38 3.71857e-41 0)
(6.37387e-39 3.05384e-42 0)
(5.55345e-40 2.51954e-43 0)
(4.74753e-41 4.06573e-44 0)
(3.79197e-42 -4.40568e-45 0)
(2.93867e-43 -1.44733e-44 0)
(2.00367e-44 6.18223e-45 0)
(1.86759e-45 8.92399e-45 0)
(7.26291e-46 1.90939e-45 0)
(1.42777e-46 4.03391e-46 0)
(2.95398e-47 5.83209e-47 0)
(4.27238e-48 8.04828e-48 0)
(5.90844e-49 9.26182e-49 0)
(6.82385e-50 1.01244e-49 0)
(7.48546e-51 9.90098e-51 0)
(8.47335e-52 8.42985e-52 0)
(1.60668e-51 -8.53758e-52 0)
(2.14057e-50 -1.00458e-50 0)
(3.02442e-49 -1.03336e-49 0)
(4.42937e-48 -9.56268e-49 0)
(6.52304e-47 -8.4872e-48 0)
(9.71216e-46 -6.46876e-47 0)
(1.41744e-44 -4.96524e-46 0)
(2.03856e-43 -3.24559e-45 0)
(2.82054e-42 -2.79721e-44 0)
(3.80044e-41 -2.67804e-43 0)
(4.86349e-40 -3.50786e-42 0)
(6.05354e-39 -4.46806e-41 0)
(7.04668e-38 -5.4359e-40 0)
(8.02705e-37 -5.73659e-39 0)
(8.31992e-36 -4.65801e-38 0)
(8.57216e-35 8.78929e-38 0)
(7.56887e-34 1.45221e-35 0)
(6.86092e-33 4.29538e-34 0)
(4.41886e-32 8.41831e-33 0)
(3.11454e-31 1.23651e-31 0)
(1.66081e-31 1.25171e-30 0)
(-1.27502e-31 1.23453e-31 0)
(1.24967e-32 -8.46907e-32 0)
(1.18746e-32 -6.7636e-33 0)
(1.84616e-33 1.70413e-33 0)
(4.09122e-34 2.92929e-34 0)
(5.35873e-35 4.84417e-35 0)
(7.74412e-36 5.39601e-36 0)
(8.73592e-37 6.09982e-37 0)
(1.00065e-37 5.87078e-38 0)
(9.93825e-39 5.62496e-39 0)
(9.72389e-40 4.893e-40 0)
(8.66231e-41 4.17589e-41 0)
(7.51686e-42 3.32946e-42 0)
(6.09616e-43 2.5814e-43 0)
(4.79038e-44 1.81023e-44 0)
(3.47639e-45 1.76518e-45 0)
(2.77615e-46 6.73678e-46 0)
(5.53791e-47 1.31336e-46 0)
(9.47743e-48 2.69436e-47 0)
(1.86416e-48 3.88301e-48 0)
(2.67363e-49 5.35461e-49 0)