/*--------------------------------*- C++ -*----------------------------------*\
| =========                 |                                                 |
| \\      /  F ield         | OpenFOAM: The Open Source CFD Toolbox           |
|  \\    /   O peration     | Version:  2.4.0                                 |
|   \\  /    A nd           | Web:      www.OpenFOAM.org                      |
|    \\/     M anipulation  |                                                 |
\*---------------------------------------------------------------------------*/
FoamFile
{
    version     2.0;
    format      ascii;
    class       surfaceScalarField;
    location    "0.35";
    object      phi;
}
// * * * * * * * * * * * * * * * * * * * * * * * * * * * * * * * * * * * * * //

dimensions      [0 3 -1 0 0 0 0];

internalField   nonuniform List<scalar> 
15214
(
1.16434e-39
1.4602e-41
7.38103e-39
1.16152e-40
1.00714e-38
1.41412e-39
3.90637e-37
1.20763e-39
9.82885e-42
-2.75329e-39
-3.9054e-37
-2.75225e-39
-8.82032e-39
1.22303e-39
1.17346e-39
1.54472e-39
1.63858e-38
1.64757e-39
4.01881e-37
2.65158e-39
3.99269e-37
-1.41307e-39
-3.71924e-37
-3.96092e-39
8.64155e-39
1.20763e-39
3.91896e-37
2.62174e-39
1.0168e-38
-1.22312e-39
7.39129e-39
-1.41526e-39
1.16429e-39
-1.16255e-40
8.67974e-41
-1.43571e-41
9.17492e-42
-1.0466e-42
6.5421e-43
-9.28301e-44
5.48937e-44
-6.23119e-45
3.63229e-45
-4.58941e-46
2.60325e-46
-2.83702e-47
3.1729e-47
-1.72088e-48
2.61263e-46
1.72688e-48
3.64713e-45
2.84683e-47
5.51371e-44
4.60661e-46
6.57581e-43
6.25773e-45
9.22615e-42
9.32604e-44
8.73962e-41
1.05237e-42
1.17281e-39
1.44436e-41
7.4688e-39
1.17208e-40
1.12442e-38
1.42856e-39
3.98105e-37
1.32483e-39
1.12442e-38
-1.32483e-39
7.4688e-39
-1.42856e-39
1.17281e-39
-1.17208e-40
8.73962e-41
-1.44436e-41
9.22615e-42
-1.05237e-42
6.5758e-43
-9.32612e-44
5.51336e-44
-6.26798e-45
3.62582e-45
-5.5867e-46
9.49731e-47
-1.08393e-45
-1.27782e-46
-6.16349e-45
1.70881e-46
-5.16176e-44
-4.52269e-45
1.6954e-40
-1.46807e-41
1.11456e-39
-1.41667e-40
1.15871e-38
-1.68891e-39
2.04464e-38
-1.4354e-39
1.61194e-42
3.28385e-39
-2.04305e-38
3.28266e-39
-1.1403e-38
-1.45321e-39
1.71353e-40
-1.84737e-39
1.25479e-38
-1.97368e-39
3.22047e-38
-3.15884e-39
2.1745e-38
1.68772e-39
-7.55902e-39
4.71924e-39
1.30023e-39
-1.4354e-39
2.06319e-38
-3.1243e-39
1.1603e-38
1.45331e-39
1.11626e-39
1.69021e-39
1.69855e-40
1.41842e-40
1.42587e-41
1.6629e-41
1.49859e-42
1.19233e-42
1.13359e-43
1.02045e-43
9.54538e-45
6.73161e-45
6.5444e-46
4.84889e-46
4.72152e-47
2.95733e-47
5.89499e-48
1.76894e-48
4.73906e-47
-1.77498e-48
6.57195e-46
-2.96732e-47
9.58945e-45
-4.86658e-46
1.13966e-43
-6.7593e-45
1.50747e-42
-1.025e-43
1.43624e-41
-1.19858e-42
1.71239e-40
-1.67243e-41
1.129e-39
-1.42932e-40
1.17584e-38
-1.70563e-39
2.15753e-38
-1.57832e-39
1.17584e-38
1.57832e-39
1.129e-39
1.70563e-39
1.71239e-40
1.42932e-40
1.43624e-41
1.67243e-41
1.50747e-42
1.19858e-42
1.13961e-43
1.02492e-43
9.53988e-45
6.64446e-45
3.5077e-46
-6.19177e-46
-2.35923e-45
-1.20128e-44
-2.09426e-45
-7.11977e-44
2.43421e-45
-6.04322e-43
-5.2628e-44
2.67109e-41
-2.45666e-42
1.15793e-40
-2.32942e-41
8.52231e-40
-2.35187e-40
1.45248e-39
-1.93585e-40
3.30023e-43
4.55092e-40
-1.4496e-39
4.54878e-40
-8.2305e-40
-1.96602e-40
2.69388e-41
-2.61313e-40
9.44293e-40
-2.82032e-40
2.33162e-39
-4.34608e-40
1.59742e-39
2.34971e-40
-4.54968e-40
6.48677e-40
1.45276e-40
-1.93585e-40
1.48193e-39
-4.28771e-40
8.55104e-40
1.9662e-40
1.16128e-40
2.35422e-40
2.66335e-41
2.33249e-41
2.54669e-42
2.80232e-42
3.055e-43
2.15516e-43
2.45287e-44
1.87118e-44
2.18685e-45
1.28448e-45
1.5465e-46
9.35782e-47
1.14808e-47
5.85773e-48
1.45776e-48
3.5336e-49
1.15248e-47
-3.546e-49
1.5533e-46
-5.87807e-48
2.19755e-45
-9.39315e-47
2.46718e-44
-1.28996e-45
3.07531e-43
-1.87995e-44
2.56901e-42
-2.16706e-43
2.69141e-41
-2.81973e-42
1.18365e-40
-2.35216e-41
8.79142e-40
-2.38006e-40
1.57081e-39
-2.17105e-40
8.79142e-40
2.17105e-40
1.18365e-40
2.38006e-40
2.69141e-41
2.35216e-41
2.56901e-42
2.81973e-42
3.07525e-43
2.16699e-43
2.46148e-44
1.87047e-44
1.59002e-45
5.00331e-47
-3.6305e-45
-1.19541e-44
-3.01823e-44
-1.334e-43
-2.64121e-44
-8.01323e-43
3.03085e-44
-6.94899e-42
-5.97554e-43
2.75837e-42
-5.13854e-43
8.94816e-42
-4.10458e-42
4.76829e-41
-3.93639e-41
7.82341e-41
-3.21236e-41
4.03583e-44
7.61653e-41
-7.79019e-41
7.6122e-41
-4.46475e-41
-3.2708e-41
2.78091e-42
-4.40034e-41
5.42215e-41
-4.76049e-41
1.28694e-40
-7.26118e-41
9.0213e-41
3.93147e-41
-1.85317e-41
1.08288e-40
1.20193e-41
-3.21229e-41
8.13027e-41
-7.1481e-41
4.80142e-41
3.2712e-41
8.98817e-42
3.94063e-41
2.74372e-42
4.10357e-42
2.91507e-43
5.41739e-43
3.72153e-44
4.36722e-44
3.14122e-45
3.98729e-45
2.87672e-46
2.81696e-46
2.09385e-47
2.10648e-47
1.57866e-48
1.34051e-48
2.04169e-49
8.19421e-50
1.58488e-48
-8.22345e-50
2.10338e-47
-1.34527e-48
2.89142e-46
-2.11467e-47
3.16057e-45
-2.8295e-46
3.74818e-44
-4.00701e-45
2.94357e-43
-4.39327e-44
2.77775e-42
-5.45442e-43
9.24188e-42
-4.14321e-42
5.04601e-41
-3.99038e-41
8.74725e-41
-3.62658e-41
5.04601e-41
3.62658e-41
9.24188e-42
3.99038e-41
2.77775e-42
4.14321e-42
2.94352e-43
5.45437e-43
3.74168e-44
4.38604e-44
2.5201e-45
3.09786e-45
-6.6036e-45
-1.17314e-44
-4.34183e-44
-1.18128e-43
-3.51197e-43
-1.32923e-42
-3.08417e-43
-8.17162e-42
3.49099e-43
-7.20575e-41
-6.16912e-42
3.06234e-43
-4.93032e-43
7.09159e-43
-5.74378e-43
1.94661e-42
-4.39131e-42
2.8442e-42
-3.49056e-42
5.19502e-45
8.36469e-42
-2.80388e-42
8.3601e-42
-1.60553e-42
-3.55559e-42
3.1035e-43
-4.87747e-42
2.38773e-42
-5.29806e-42
5.09974e-42
-7.95139e-42
3.89082e-42
4.32299e-42
1.5416e-43
1.18491e-41
1.05207e-42
-3.48329e-42
3.1886e-42
-7.81187e-42
1.98592e-42
3.55611e-42
7.12167e-43
4.33481e-42
3.05607e-43
4.82194e-43
3.48312e-44
6.67051e-44
4.74659e-45
5.62842e-45
4.13967e-46
5.27482e-46
3.90007e-47
3.83375e-47
2.89125e-48
2.91104e-48
2.21215e-49
1.88647e-49
2.89151e-50
1.16368e-50
2.22103e-49
-1.16791e-50
2.90473e-48
-1.89332e-49
3.92065e-47
-2.92267e-48
4.16636e-46
-3.85137e-47
4.78267e-45
-5.30203e-46
3.52057e-44
-5.66382e-45
3.09934e-43
-6.71939e-44
7.42174e-43
-4.87289e-43
2.25586e-42
-4.39581e-42
3.58563e-42
-3.97054e-42
2.25586e-42
3.97054e-42
7.42173e-43
4.39581e-42
3.09929e-43
4.87286e-43
3.5152e-44
6.71503e-44
4.08285e-45
5.00254e-45
-6.54305e-45
-7.86439e-45
-7.61138e-44
-1.12821e-43
-4.8732e-43
-1.12827e-42
-4.02944e-42
-1.3037e-41
-3.55709e-42
-8.26445e-41
3.96554e-42
-7.53066e-40
-6.3372e-41
3.31804e-45
-4.56128e-42
7.74079e-44
-1.00538e-42
5.38301e-44
-1.14015e-42
3.58114e-44
-4.74329e-43
9.27538e-46
9.5923e-43
-2.85228e-44
9.68316e-43
-1.44392e-44
-4.10779e-43
2.93059e-44
-5.67764e-43
7.57359e-44
-6.17607e-43
1.08575e-43
-9.20945e-43
1.18593e-43
5.01095e-43
1.0068e-43
1.37158e-42
8.65364e-44
-4.0159e-43
6.53158e-44
-9.03407e-43
5.07341e-44
4.10756e-43
5.4307e-44
5.02623e-43
2.88145e-44
5.75672e-44
3.47239e-45
8.37381e-45
4.912e-46
7.26918e-46
4.41373e-47
6.99776e-47
4.23469e-48
5.17845e-48
3.19768e-49
3.98868e-49
2.4731e-50
2.6129e-50
3.2711e-51
1.6236e-51
2.4832e-50
-1.62958e-51
3.21292e-49
-2.62251e-50
4.25767e-48
-4.00491e-49
4.44323e-47
-5.20285e-48
4.95112e-46
-7.03502e-47
3.51224e-45
-7.31694e-46
2.92609e-44
-8.43856e-45
5.72797e-44
-5.82234e-44
7.59877e-44
-5.1026e-43
8.98226e-44
-4.59809e-43
7.59876e-44
4.59809e-43
5.72771e-44
5.10258e-43
2.92209e-44
5.82014e-44
3.00222e-45
8.10854e-45
-6.22048e-45
-4.31944e-45
-6.75368e-44
-6.47776e-44
-7.51075e-43
-8.85672e-43
-4.91111e-42
-9.05817e-42
-4.13585e-41
-1.07421e-40
-3.67071e-41
-7.14932e-40
4.01125e-41
-6.65736e-39
-5.60648e-40
-2.46335e-43
-4.18259e-41
2.66226e-43
-9.33421e-42
7.8425e-44
-6.62305e-42
2.86931e-44
-7.67267e-43
4.42054e-45
-1.15182e-44
8.85933e-45
8.47154e-44
5.10476e-45
-4.04178e-44
2.84462e-45
-5.53328e-44
2.67903e-46
-6.02577e-44
-6.91064e-45
-8.90272e-44
-1.39333e-46
4.854e-44
1.36665e-44
1.32517e-43
7.74727e-45
-3.85906e-44
-4.65141e-45
-8.72075e-44
-1.51149e-45
3.95425e-44
4.61807e-45
4.8703e-44
2.78864e-45
5.78302e-45
3.46606e-46
8.67512e-46
5.04957e-47
7.74385e-47
4.62274e-48
7.58753e-48
4.50208e-49
5.71783e-49
3.43931e-50
4.45036e-50
2.68191e-51
2.94979e-51
3.57216e-52
1.84391e-52
2.69299e-51
-1.85078e-52
3.45594e-50
-2.96079e-51
4.52698e-49
-4.46879e-50
4.65444e-48
-5.74536e-49
5.09111e-47
-7.62906e-48
3.50773e-46
-7.79653e-47
2.83444e-45
-8.74522e-46
4.91327e-45
-5.85278e-45
9.21263e-46
-4.94919e-44
-2.92341e-45
-4.44428e-44
9.19663e-46
4.44423e-44
4.88914e-45
4.94826e-44
2.4686e-45
5.69283e-45
-4.34916e-45
-1.55037e-45
-6.29124e-44
-3.76952e-44
-6.43968e-43
-4.92678e-43
-7.34891e-42
-6.92219e-42
-4.94067e-41
-7.29586e-41
-4.3118e-40
-9.08139e-40
-3.85516e-40
-6.4392e-39
4.1273e-40
-6.34691e-38
-5.19347e-39
-1.89408e-42
-3.93611e-40
3.10373e-42
-8.09188e-41
8.51819e-43
-5.60684e-41
3.6877e-43
-6.06905e-42
4.32463e-44
-8.34276e-43
7.14513e-45
-6.22645e-44
1.19494e-45
-1.05887e-44
3.00066e-46
-5.88355e-45
-2.05442e-46
-5.92031e-45
-1.16622e-45
-8.65303e-45
-3.88359e-46
4.71985e-45
1.3128e-45
1.28714e-44
6.53304e-46
-3.73712e-45
-7.58264e-46
-8.4651e-45
-3.4113e-46
3.83424e-45
3.79574e-46
4.73692e-45
2.43224e-46
5.73698e-46
3.10701e-47
8.83622e-47
4.61212e-48
8.02885e-48
4.29842e-49
7.98314e-49
4.23127e-50
6.0868e-50
3.27037e-51
4.77592e-51
2.56672e-52
3.18842e-52
3.44434e-53
2.00111e-53
2.57744e-52
-2.00861e-53
3.28641e-51
-3.20041e-52
4.25509e-50
-4.79593e-51
4.32854e-49
-6.11654e-50
4.65113e-48
-8.02769e-49
3.14571e-47
-8.0849e-48
2.47399e-46
-8.90991e-47
4.05945e-46
-5.80919e-46
-1.2988e-46
-4.81714e-45
-6.31872e-46
-4.31812e-45
-1.41701e-46
4.31526e-45
2.26601e-46
4.77062e-45
-2.49534e-45
-2.19692e-46
-3.56023e-44
-1.21629e-44
-4.84625e-43
-1.93374e-43
-5.06388e-42
-2.57214e-42
-5.91961e-41
-3.71092e-41
-4.14659e-40
-4.11082e-40
-3.71418e-39
-5.4111e-39
-3.34554e-39
-4.33994e-38
3.46853e-39
-4.39988e-37
-3.6569e-38
-8.37453e-43
-2.95863e-39
3.72585e-41
-7.02576e-40
9.41076e-42
-5.2463e-40
3.84199e-42
-5.38875e-41
4.32792e-43
-7.20916e-42
5.9459e-44
-5.85632e-43
5.24767e-45
-5.45166e-44
5.12756e-46
-4.33028e-45
1.06507e-47
-8.07612e-46
-1.16498e-46
-7.74522e-46
-4.57847e-47
4.11815e-46
1.17084e-46
1.1243e-45
5.55549e-47
-3.25268e-46
-7.70079e-47
-7.39029e-46
-3.63914e-47
3.34128e-46
3.19019e-47
4.14595e-46
2.09788e-47
5.13673e-47
2.72431e-48
8.05131e-48
4.10182e-49
7.44468e-49
3.86796e-50
7.47973e-50
3.83834e-51
5.76971e-51
2.98933e-52
4.55515e-52
2.35652e-53
3.06379e-53
3.17656e-54
1.92921e-54
2.36642e-53
-1.93649e-54
3.00411e-52
-3.07541e-53
3.8602e-51
-4.57444e-52
3.89548e-50
-5.79829e-51
4.13716e-49
-7.52221e-50
2.75907e-48
-7.49782e-49
2.13488e-47
-8.12036e-48
3.41925e-47
-5.20379e-47
-1.85098e-47
-4.21929e-46
-7.19654e-47
-3.78023e-46
-1.04707e-46
3.63532e-46
-1.28722e-45
1.83853e-46
-2.05563e-44
-4.12155e-45
-2.71663e-43
-6.47698e-44
-3.79895e-42
-1.05179e-42
-4.07662e-41
-1.43403e-41
-4.98045e-40
-2.18101e-40
-3.65484e-39
-2.57461e-39
-3.4915e-38
-3.77809e-38
-3.17516e-38
-3.51497e-37
3.20798e-38
-4.01114e-36
-3.11623e-37
3.21523e-40
-2.51714e-38
5.24086e-40
-4.62944e-39
9.73074e-41
-3.19602e-39
3.25843e-41
-3.15977e-40
3.50136e-42
-3.92086e-41
4.59798e-43
-3.07793e-42
3.92293e-44
-2.73832e-43
3.64746e-45
-1.91376e-44
2.65154e-46
-1.46178e-45
1.02473e-47
-1.63346e-46
-2.67516e-48
3.47584e-47
9.50648e-48
1.09862e-46
4.40932e-48
-3.18258e-47
-6.43795e-48
-7.24012e-47
-3.08954e-48
3.2701e-47
2.51384e-48
4.06783e-47
1.67365e-48
5.1101e-48
2.20956e-49
8.11648e-49
3.35982e-50
7.58976e-50
3.20525e-51
7.68299e-51
3.19996e-52
5.97046e-52
2.51124e-53
4.73256e-53
1.98663e-54
3.19715e-54
2.69055e-55
2.01653e-55
1.99499e-54
-2.02416e-55
2.52368e-53
-3.20934e-54
3.21818e-52
-4.75275e-53
3.22792e-51
-6.00035e-52
3.38832e-50
-7.72725e-51
2.23641e-49
-7.64504e-50
1.70004e-48
-8.18804e-49
2.62607e-48
-5.17981e-48
-3.03377e-48
-4.14453e-47
-2.96062e-47
-3.7601e-47
-4.14063e-46
2.52272e-47
-6.36267e-45
-1.63122e-46
-1.0041e-43
-3.62812e-45
-1.35163e-42
-5.71792e-44
-1.93317e-41
-9.63421e-43
-2.15528e-40
-1.42625e-41
-2.73356e-39
-2.57528e-40
-2.16182e-38
-4.37507e-39
-2.14973e-37
-9.05006e-38
-1.96852e-37
-1.43358e-36
1.85985e-37
-1.68596e-35
-1.39523e-36
-9.25161e-40
-1.15158e-41
-6.01745e-39
-9.519e-41
-8.29924e-39
-1.28378e-39
-3.54521e-37
-1.11393e-39
2.3568e-49
2.50505e-39
3.54521e-37
2.50505e-39
8.29924e-39
-1.11393e-39
6.01769e-39
-1.28377e-39
9.24257e-40
-9.51958e-41
6.305e-41
-1.1321e-41
6.42583e-42
-7.58195e-43
3.89075e-43
-6.4726e-44
-3.89084e-43
-8.01791e-45
-6.42597e-42
-6.4727e-44
-6.30521e-41
-7.58211e-43
-9.24291e-40
-1.13213e-41
-6.01812e-39
-9.51999e-41
-8.3057e-39
-1.28384e-39
-3.54585e-37
-1.11469e-39
-9.30719e-40
2.49366e-39
3.4844e-37
2.40909e-39
-9.30719e-40
-2.40909e-39
-3.54585e-37
-2.49366e-39
-8.3057e-39
1.11469e-39
-6.01812e-39
1.28384e-39
-9.24293e-40
9.51999e-41
-6.30864e-41
1.1321e-41
-6.85308e-42
7.54171e-43
-6.88303e-42
-2.65294e-46
-6.34752e-41
-7.57913e-43
-9.30296e-40
-1.13814e-41
-6.0747e-39
-9.58933e-41
-9.16648e-39
-1.2944e-39
-3.59672e-37
-1.1985e-39
-3.14879e-39
1.30584e-39
3.14876e-39
2.59032e-39
3.59672e-37
1.30584e-39
9.16038e-39
-1.19856e-39
6.03802e-39
-1.29489e-39
-1.02209e-40
-1.34193e-40
1.16576e-41
-9.10309e-40
1.16113e-40
-1.04381e-38
1.53338e-39
-1.86362e-38
1.32482e-39
3.5029e-48
-2.98837e-39
1.86362e-38
-2.98837e-39
1.04381e-38
1.32482e-39
9.10359e-40
1.53338e-39
1.34264e-40
1.1616e-40
1.03491e-41
1.3076e-41
1.04505e-42
8.62131e-43
6.7301e-44
7.09489e-44
-6.73026e-44
8.64608e-45
-1.04508e-42
7.09499e-44
-1.03495e-41
8.62147e-43
-1.3427e-40
1.30763e-41
-9.10433e-40
1.16164e-40
-1.04391e-38
1.53345e-39
-1.86466e-38
1.32568e-39
-1.35316e-40
-2.97522e-39
1.77154e-38
-2.87134e-39
-1.35316e-40
2.87134e-39
-1.86466e-38
2.97522e-39
-1.04391e-38
-1.32568e-39
-9.10433e-40
-1.53345e-39
-1.34271e-40
-1.16164e-40
-1.03554e-41
-1.3076e-41
-1.11899e-42
-8.57792e-43
-1.12415e-42
2.79956e-46
-1.04227e-41
8.61833e-43
-1.35243e-40
1.31423e-41
-9.19731e-40
1.16956e-40
-1.0563e-38
1.54566e-39
-1.94217e-38
1.4287e-39
-9.65261e-39
-1.55887e-39
9.65261e-39
-3.09305e-39
1.94216e-38
-1.55887e-39
1.05618e-38
1.42874e-39
9.12034e-40
1.54529e-39
9.37434e-41
-2.13492e-41
1.94521e-42
-9.49266e-41
1.91263e-41
-7.70414e-40
2.13979e-40
-1.333e-39
1.79678e-40
-1.46763e-48
-4.1516e-40
1.333e-39
-4.1516e-40
7.70414e-40
1.79678e-40
9.49278e-41
2.13979e-40
2.12643e-41
1.91344e-41
1.85823e-42
2.19943e-42
2.14273e-43
1.55778e-43
1.45373e-44
1.29791e-44
-1.45377e-44
1.64784e-45
-2.14279e-43
1.29793e-44
-1.85832e-42
1.55781e-43
-2.12657e-41
2.19949e-42
-9.49438e-41
1.91352e-41
-7.7063e-40
2.13992e-40
-1.33487e-39
1.79834e-40
-2.148e-41
-4.12948e-40
1.23619e-39
-3.95869e-40
-2.148e-41
3.95869e-40
-1.33487e-39
4.12948e-40
-7.7063e-40
-1.79834e-40
-9.49438e-41
-2.13992e-40
-2.12658e-41
-1.91352e-41
-1.85968e-42
-2.19943e-42
-2.30342e-43
-1.54951e-43
-2.31523e-43
5.37927e-47
-1.87421e-42
1.55721e-43
-2.14641e-41
2.21152e-42
-9.65863e-41
1.9278e-41
-7.9002e-40
2.16035e-40
-1.40832e-39
1.96756e-40
-6.95092e-40
-2.1826e-40
6.95091e-40
-4.32383e-40
1.40831e-39
-2.18259e-40
7.89971e-40
1.96763e-40
9.63092e-41
2.15971e-40
1.54001e-41
-2.21725e-42
3.76427e-43
-7.36482e-42
3.36652e-42
-4.33382e-41
3.58464e-41
-7.24719e-41
2.9875e-41
-2.98985e-49
-6.95515e-41
7.24719e-41
-6.95515e-41
4.33381e-41
2.9875e-41
7.36451e-42
3.58465e-41
2.20304e-42
3.36878e-42
2.13382e-43
4.26699e-43
2.61432e-44
3.16438e-44
1.85951e-45
2.77411e-45
-1.85957e-45
3.6206e-46
-2.6144e-44
2.77416e-45
-2.13394e-43
3.16446e-44
-2.20322e-42
4.26712e-43
-7.36656e-42
3.36896e-42
-4.33644e-41
3.58492e-41
-7.26873e-41
2.99068e-41
-2.22938e-42
-6.9122e-41
6.48919e-41
-6.61509e-41
-2.22938e-42
6.61509e-41
-7.26873e-41
6.9122e-41
-4.33644e-41
-2.99068e-41
-7.36656e-42
-3.58492e-41
-2.20323e-42
-3.36896e-42
-2.13574e-43
-4.26699e-43
-2.82049e-44
-3.14621e-44
-2.83596e-44
1.21179e-47
-2.15432e-43
3.16309e-44
-2.22734e-42
4.29278e-43
-7.55361e-42
3.39783e-42
-4.5352e-41
3.62441e-41
-7.78224e-41
3.28461e-41
-3.79875e-41
-3.66762e-41
3.79875e-41
-7.25518e-41
7.78226e-41
-3.66761e-41
4.5355e-41
3.28464e-41
7.57671e-42
3.62244e-41
2.67117e-42
-2.49314e-43
4.61426e-44
-5.85271e-43
3.95891e-43
-1.80399e-42
3.94702e-42
-2.73005e-42
3.24853e-42
-6.48581e-50
-7.64884e-42
2.73005e-42
-7.64884e-42
1.80398e-42
3.24853e-42
5.85153e-43
3.94702e-42
2.46752e-43
3.96219e-43
2.55632e-44
5.25928e-44
3.34295e-45
4.08268e-45
2.44774e-46
3.67148e-46
-2.44782e-46
4.92937e-47
-3.34307e-45
3.67154e-46
-2.55649e-44
4.08279e-45
-2.46776e-43
5.25946e-44
-5.85423e-43
3.96244e-43
-1.80735e-42
3.94739e-42
-2.75589e-42
3.25263e-42
-2.50121e-43
-7.59588e-42
2.11906e-42
-7.24851e-42
-2.50121e-43
7.24851e-42
-2.75589e-42
7.59588e-42
-1.80735e-42
-3.25263e-42
-5.85423e-43
-3.94739e-42
-2.46778e-43
-3.96244e-43
-2.55893e-44
-5.25928e-44
-3.61523e-45
-4.05793e-45
-3.63619e-45
1.67196e-48
-2.58338e-44
4.08089e-45
-2.49852e-43
5.29334e-44
-6.07618e-43
3.99959e-43
-2.02826e-42
3.99588e-42
-3.09092e-42
3.59589e-42
-1.44311e-42
-4.04918e-42
1.44312e-42
-7.99997e-42
3.09103e-42
-4.04918e-42
2.02991e-42
3.59587e-42
6.18334e-43
3.99289e-42
3.10752e-43
-2.36367e-44
5.83951e-45
-4.47488e-44
4.72528e-44
-4.72191e-44
4.57897e-43
-4.27076e-44
3.75026e-43
-7.99142e-51
-8.87448e-43
4.27075e-44
-8.87448e-43
4.7217e-44
3.75027e-43
4.47315e-44
4.57901e-43
2.33332e-44
4.73261e-44
2.55242e-45
6.61414e-45
3.46287e-46
5.27962e-46
2.60736e-47
4.8777e-47
-2.60744e-47
6.66438e-48
-3.463e-46
4.8778e-47
-2.55261e-45
5.27977e-46
-2.33358e-44
6.61438e-45
-4.47604e-44
4.73294e-44
-4.75661e-44
4.5795e-43
-4.52888e-44
3.75558e-43
-2.36823e-44
-8.80785e-43
-4.60537e-45
-8.39591e-43
-2.36823e-44
8.39591e-43
-4.52888e-44
8.80785e-43
-4.75661e-44
-3.75558e-43
-4.47604e-44
-4.5795e-43
-2.3336e-44
-4.73294e-44
-2.55526e-45
-6.61414e-45
-3.75355e-46
-5.24616e-46
-3.77624e-46
2.29085e-49
-2.58131e-45
5.27717e-46
-2.36536e-44
6.65932e-45
-4.69637e-44
4.78086e-44
-6.8318e-44
4.64033e-43
-6.6338e-44
4.16221e-43
-2.35864e-44
-4.70741e-43
2.35875e-44
-9.29128e-43
6.63556e-44
-4.70742e-43
6.85585e-44
4.16205e-43
4.84601e-44
4.63577e-43
3.66513e-44
-2.2827e-45
2.04851e-45
-3.81424e-45
4.4081e-45
1.21458e-45
4.43639e-44
5.89016e-45
3.60959e-44
8.4761e-51
-8.59991e-44
-5.89008e-45
-8.5999e-44
-1.21384e-45
3.60987e-44
3.80991e-45
4.43956e-44
2.26186e-45
4.75701e-45
2.55001e-46
6.85756e-46
3.56336e-47
5.6287e-47
2.72867e-48
5.29111e-48
-2.72877e-48
7.36109e-49
-3.5635e-47
5.29121e-48
-2.55021e-46
5.62887e-47
-2.26214e-45
6.85783e-46
-3.81294e-45
4.75738e-45
1.17791e-45
4.44009e-44
5.63205e-45
3.61553e-44
-2.29779e-45
-8.53079e-44
-9.95802e-45
-8.11853e-44
-2.29779e-45
8.11853e-44
5.63205e-45
8.53079e-44
1.17791e-45
-3.61553e-44
-3.81294e-45
-4.44009e-44
-2.26216e-45
-4.75738e-45
-2.55303e-46
-6.85755e-46
-3.86812e-47
-5.59174e-47
-3.89222e-47
2.55361e-50
-2.58029e-46
5.62597e-47
-2.29478e-45
6.9065e-46
-4.03201e-45
4.80837e-45
-8.25919e-46
4.503e-44
4.11992e-45
4.02213e-44
2.984e-45
-4.5726e-44
-2.98384e-45
-9.01733e-44
-4.11759e-45
-4.57261e-44
8.56821e-46
4.02188e-44
4.21926e-45
4.49767e-44
3.65368e-45
2.41174e-46
2.15629e-45
-2.9176e-46
-3.24107e-45
3.09418e-46
3.98596e-45
8.38484e-46
3.4753e-45
1.13192e-49
-8.3686e-45
-8.37208e-46
-8.36724e-45
-2.94989e-46
3.49919e-45
3.13472e-46
4.31954e-45
1.97439e-46
4.7208e-46
2.28721e-47
6.99093e-47
3.25593e-48
5.83976e-48
2.53561e-49
5.57058e-49
-2.53571e-49
7.83942e-50
-3.25607e-48
5.57069e-49
-2.2874e-47
5.83995e-48
-1.97465e-46
6.99123e-47
-3.13753e-46
4.72119e-46
2.91705e-46
4.32009e-45
8.14062e-46
3.50507e-45
-2.00723e-46
-8.29669e-45
-1.17384e-45
-7.8892e-45
-2.00723e-46
7.8892e-45
8.14062e-46
8.29669e-45
2.91705e-46
-3.50507e-45
-3.13754e-46
-4.32009e-45
-1.97467e-46
-4.72119e-46
-2.29005e-47
-6.99093e-47
-3.53952e-48
-5.8004e-48
-3.56213e-48
2.7396e-51
-2.31538e-47
5.83683e-48
-2.00443e-46
7.04241e-47
-3.33342e-46
4.77402e-46
1.1742e-46
4.38412e-45
7.01314e-46
3.90669e-45
4.30893e-46
-4.45511e-45
-4.30874e-46
-8.78001e-45
-7.01066e-46
-4.45513e-45
-1.14245e-46
3.90634e-45
3.52264e-46
4.37811e-45
3.59853e-46
1.50661e-44
2.88108e-43
5.65886e-46
-4.56353e-44
2.56577e-46
-3.71972e-45
1.00486e-46
6.22219e-47
1.40419e-48
-7.46106e-46
-8.28178e-47
-7.33063e-46
-3.17572e-47
3.04864e-46
2.63595e-47
3.78207e-46
1.70368e-47
4.22856e-47
2.00619e-48
6.37254e-48
2.89675e-49
5.41725e-49
2.28059e-50
5.22027e-50
-2.28068e-50
7.43227e-51
-2.89688e-49
5.22038e-50
-2.00636e-48
5.41743e-49
-1.70392e-47
6.37282e-48
-2.63846e-47
4.22894e-47
3.14703e-47
3.78261e-46
8.08747e-47
3.05445e-46
-1.7329e-47
-7.25939e-46
-1.11297e-46
-6.89533e-46
-1.7329e-47
6.89533e-46
8.08747e-47
7.25939e-46
3.14703e-47
-3.05445e-46
-2.63846e-47
-3.78261e-46
-1.70394e-47
-4.22894e-47
-2.00877e-48
-6.37254e-48
-3.15208e-49
-5.37993e-49
-3.17256e-49
2.61109e-52
-2.03155e-48
5.41446e-49
-1.73038e-47
6.42073e-48
-2.80986e-47
4.27789e-47
1.64651e-47
3.84088e-46
7.18445e-47
3.41306e-46
4.28244e-47
-3.90562e-46
-4.28224e-47
-7.69267e-46
-7.18198e-47
-3.90564e-46
-1.6156e-47
3.41268e-46
2.99238e-47
3.83498e-46
3.20762e-47
4.44394e-43
-1.00232e-42
3.37093e-44
-8.40914e-44
2.90146e-45
-5.75814e-45
1.97594e-46
-2.93654e-46
1.2194e-47
-9.01807e-47
-6.18168e-48
-7.27986e-47
-2.66671e-48
2.97883e-47
2.07998e-48
3.71153e-47
1.35963e-48
4.20763e-48
1.62767e-49
6.42643e-49
2.37304e-50
5.52464e-50
1.88913e-51
5.36321e-51
-1.8892e-51
7.692e-52
-2.37313e-50
5.36333e-51
-1.62777e-49
5.52485e-50
-1.35972e-48
6.42676e-49
-2.08003e-48
4.20812e-48
2.68191e-48
3.71229e-47
6.72703e-48
2.98918e-47
-1.38347e-48
-7.12171e-47
-9.13469e-48
-6.76017e-47
-1.38347e-48
6.76017e-47
6.72703e-48
7.12171e-47
2.68191e-48
-2.98918e-47
-2.08003e-48
-3.71229e-47
-1.35974e-48
-4.20812e-48
-1.62977e-49
-6.42647e-49
-2.58469e-50
-5.48603e-50
-2.60175e-50
2.7117e-53
-1.64864e-49
5.52176e-50
-1.38138e-48
6.47595e-49
-2.21885e-48
4.258e-48
1.48725e-48
3.77099e-47
6.03257e-48
3.34516e-47
3.56519e-48
-3.83629e-47
-3.56501e-48
-7.55311e-47
-6.03038e-48
-3.83632e-47
-1.46044e-48
3.34472e-47
2.37622e-48
3.76468e-47
3.17956e-48
1.51015e-38
-2.12116e-37
1.26053e-38
-5.83191e-38
1.94972e-39
-4.73645e-38
5.49728e-40
-4.11665e-39
5.46007e-41
-4.92811e-40
6.87148e-42
-3.63555e-41
5.62205e-43
-3.16444e-42
5.11488e-44
-2.12867e-43
3.6567e-45
-1.55107e-44
2.72374e-46
-9.62343e-46
1.71579e-47
-5.92598e-47
1.92767e-48
1.92577e-48
4.34857e-49
-1.76101e-48
-5.45791e-49
-3.56939e-48
-2.65107e-49
1.60534e-48
2.09901e-49
2.00289e-48
1.40504e-49
2.556e-49
1.87102e-50
4.1364e-50
2.86116e-51
3.92376e-51
2.74551e-52
4.02107e-52
2.74801e-53
3.15866e-53
2.16336e-54
2.52405e-54
1.7122e-55
1.71823e-55
2.31998e-56
1.0891e-56
1.71618e-55
-1.09308e-56
2.16646e-54
-1.72443e-55
2.74608e-53
-2.53394e-54
2.72603e-52
-3.17232e-53
2.8009e-51
-4.03915e-52
1.71927e-50
-3.94086e-51
1.07207e-49
-4.14769e-50
-4.58449e-49
-2.53838e-49
-1.31165e-47
-1.93389e-48
-2.26669e-46
1.98719e-49
-3.97979e-45
3.96548e-47
-6.24417e-44
6.56723e-46
-1.01487e-42
1.12825e-44
-1.39776e-41
1.70547e-43
-2.09153e-40
2.44898e-42
-2.41422e-39
1.96283e-41
-3.30041e-38
-2.48578e-40
-2.76582e-37
-2.32545e-38
-3.19629e-36
-8.02261e-37
-2.94213e-36
-1.99286e-35
2.96516e-36
-9.5736e-36
-1.99957e-35
3.12615e-36
4.86545e-37
-2.86368e-37
3.24903e-37
-2.24189e-37
3.28846e-38
-5.12699e-38
5.48027e-39
-4.02404e-39
4.77568e-40
-4.5826e-40
5.23999e-41
-3.33137e-41
4.05849e-42
-2.88734e-42
3.49701e-43
-1.93572e-43
2.43403e-44
-1.40923e-44
1.7726e-45
-8.69844e-46
1.11984e-46
-5.54342e-47
7.20528e-48
-2.88152e-48
4.31622e-49
-2.62873e-49
-1.05874e-51
-1.94935e-49
-1.08094e-50
8.30456e-50
9.5443e-51
1.04396e-49
6.37182e-51
1.34387e-50
8.58193e-52
2.17759e-51
1.32517e-52
2.07581e-52
1.28341e-53
2.12552e-53
1.29295e-54
1.67277e-54
1.02454e-55
1.3338e-55
8.14155e-57
9.07706e-57
1.1123e-57
5.73698e-58
8.27117e-57
-5.74383e-58
1.05199e-55
-9.07604e-57
1.35144e-54
-1.33084e-55
1.40477e-53
-1.6608e-54
1.57719e-52
-2.09104e-53
1.36162e-51
-1.98786e-52
1.6351e-50
-1.97435e-51
1.97074e-49
-9.04907e-51
3.47422e-48
-1.4061e-50
6.03137e-47
1.65851e-48
1.03778e-45
3.30113e-47
1.62017e-44
5.70727e-46
2.55533e-43
9.85853e-45
3.50651e-42
1.49833e-43
5.03201e-41
2.18174e-42
5.8003e-40
1.8917e-41
7.45291e-39
-1.50211e-40
6.28174e-38
-1.81391e-38
6.53083e-37
-6.43063e-37
8.74522e-37
-1.62993e-35
-1.64546e-38
-1.27494e-33
-1.63661e-35
-3.1197e-37
2.08143e-35
-1.06902e-35
5.88917e-37
-3.00695e-37
4.45138e-37
2.90362e-38
7.279e-38
3.31096e-39
5.70727e-39
4.43371e-40
6.16664e-40
3.32538e-41
4.52997e-41
2.91105e-42
3.85462e-42
1.95474e-43
2.59949e-43
1.42257e-44
1.87391e-44
8.77352e-46
1.15936e-45
5.59935e-47
7.35889e-47
3.20065e-48
4.19612e-48
1.79242e-49
2.38811e-49
1.0932e-51
1.21077e-50
4.36655e-51
1.10919e-51
4.85986e-51
3.32662e-52
6.30611e-52
4.22269e-53
1.028e-52
6.35452e-54
9.88065e-54
6.13576e-55
1.01621e-54
6.15765e-56
8.04267e-56
4.87899e-57
6.42883e-57
3.88168e-58
4.38981e-58
8.84652e-59
2.77009e-59
1.26048e-57
-2.95719e-59
2.53956e-56
-4.83033e-58
5.31814e-55
-7.48807e-57
1.0978e-53
-1.05069e-55
2.29538e-52
-1.57866e-54
4.63161e-51
-2.2216e-53
9.27565e-50
-3.68314e-52
1.76033e-48
-6.07362e-51
3.29728e-47
-1.14671e-49
5.74835e-46
-2.08814e-48
9.9619e-45
-3.91574e-47
1.56667e-43
-6.78339e-46
2.49594e-42
-1.17184e-44
3.45918e-41
-1.76825e-43
5.03616e-40
-2.52052e-42
5.89186e-39
-1.85647e-41
7.7489e-38
3.44514e-40
6.71933e-37
2.76174e-38
7.33513e-36
9.42753e-37
6.99862e-36
2.34449e-35
1.54196e-35
1.42747e-33
2.35042e-35
-6.04191e-36
5.33801e-37
-2.10414e-37
2.72607e-37
-1.40182e-37
2.87115e-38
3.83904e-38
4.92838e-39
3.80229e-39
4.38361e-40
4.82891e-40
4.88536e-41
3.60474e-41
3.82423e-42
3.15113e-42
3.32287e-43
2.12185e-43
2.32732e-44
1.54639e-44
1.70365e-45
9.56061e-46
1.08081e-46
6.10902e-47
6.94262e-48
3.48504e-48
4.02997e-49
2.00066e-49
2.32242e-50
1.0185e-50
1.22152e-51
7.38028e-52
8.50555e-53
2.55529e-52
1.62901e-53
3.12154e-53
1.93796e-54
4.9378e-54
2.83173e-55
4.73168e-55
2.72759e-56
4.84328e-56
2.73093e-57
3.83285e-57
2.16765e-58
3.05469e-58
1.71967e-59
2.08369e-59
2.89342e-60
1.25353e-60
3.0004e-59
-2.87809e-60
5.05043e-58
-5.97579e-59
8.88246e-57
-1.25158e-57
1.56455e-55
-2.60366e-56
2.81757e-54
-5.57655e-55
5.1328e-53
-1.16857e-53
8.90006e-52
-2.46596e-52
1.57444e-50
-4.99257e-51
2.41919e-49
-1.00304e-49
3.94393e-48
-1.90012e-48
4.81615e-47
-3.56549e-47
7.02594e-46
-6.176e-46
4.50432e-45
-1.06422e-44
5.78273e-44
-1.60173e-43
-1.03264e-42
-2.25002e-42
-1.05376e-41
-1.51122e-41
-5.65054e-40
3.8659e-40
-4.00868e-39
2.7562e-38
-1.11794e-37
9.24491e-37
1.68923e-37
2.26533e-35
6.88804e-37
1.43414e-35
2.27191e-35
4.38217e-37
4.12845e-38
-1.70178e-37
-1.62656e-38
-1.1814e-38
-3.91708e-40
2.30823e-39
2.38367e-40
2.85303e-40
3.2288e-41
3.87073e-41
4.84809e-42
3.11849e-42
4.27898e-43
2.8102e-43
4.11548e-44
1.97472e-44
3.04294e-45
1.46749e-45
2.33533e-46
9.32495e-47
1.52465e-47
6.04194e-48
1.00406e-48
3.51244e-49
5.92209e-50
2.03897e-50
3.46509e-51
1.07611e-51
1.86216e-52
6.58055e-53
1.07923e-53
1.27915e-53
1.06371e-54
1.45008e-54
1.0203e-55
2.20741e-55
1.31677e-56
2.10757e-56
1.22945e-57
2.14951e-57
1.20782e-58
1.70369e-58
9.50534e-60
1.35654e-59
1.47754e-61
9.28342e-61
-1.49743e-59
1.13081e-61
-3.68123e-58
1.35528e-60
-8.68817e-57
3.43992e-59
-2.00689e-55
8.49965e-58
-4.43968e-54
2.01581e-56
-9.63929e-53
4.66675e-55
-1.98726e-51
1.03247e-53
-4.04021e-50
2.24095e-52
-7.7009e-49
4.60935e-51
-1.4596e-47
9.36006e-50
-2.54386e-46
1.77714e-48
-4.47375e-45
3.36425e-47
-7.01614e-44
5.83161e-46
-1.13973e-42
1.02571e-44
-1.56884e-41
1.60155e-43
-2.34607e-40
2.63493e-42
-2.70604e-39
3.73691e-41
-3.69685e-38
6.17399e-40
-3.0951e-37
9.01743e-39
-3.57495e-36
1.65637e-37
-3.29119e-36
2.31591e-36
3.31801e-36
2.69937e-35
2.3208e-36
3.51642e-36
2.11578e-39
-2.60334e-38
-1.59722e-39
-1.78681e-39
-9.99018e-41
1.10497e-40
6.49252e-42
2.12237e-41
1.55266e-42
3.76005e-42
2.8416e-43
3.34602e-43
2.73773e-44
3.31145e-44
2.76838e-45
2.44568e-45
2.13197e-46
1.90031e-46
1.67621e-47
1.24064e-47
1.12114e-48
8.22964e-49
7.49272e-50
4.85793e-50
4.49047e-51
2.85752e-51
2.65469e-52
1.53791e-52
1.44619e-53
8.58374e-54
8.10707e-55
8.4217e-55
6.22307e-56
7.73096e-56
5.11471e-57
1.02689e-56
5.84548e-58
9.49773e-58
5.26765e-59
9.49198e-59
5.06445e-60
7.47786e-60
3.99572e-61
5.918e-61
9.9314e-62
4.46004e-62
1.70822e-60
1.16395e-61
4.15706e-59
2.9373e-60
9.76933e-58
7.33983e-59
2.24297e-56
1.79382e-57
4.93841e-55
4.22243e-56
1.06379e-53
9.73477e-55
2.17963e-52
2.14804e-53
4.38317e-51
4.65568e-52
8.28387e-50
9.56979e-51
1.54595e-48
1.94229e-49
2.66219e-47
3.68799e-48
4.57784e-46
6.97928e-47
7.05487e-45
1.21023e-45
1.1081e-43
2.12755e-44
1.48488e-42
3.32137e-43
2.10588e-41
5.44737e-42
2.32346e-40
7.65879e-41
2.90351e-39
1.23864e-39
2.24802e-38
1.72363e-38
2.19353e-37
3.02628e-37
1.99812e-37
3.97637e-36
-1.99008e-37
4.62769e-35
3.97481e-36
-2.14973e-37
1.97315e-40
-1.68108e-39
-2.00818e-40
-1.31655e-40
-1.50193e-41
1.82891e-42
-6.08767e-43
1.00316e-42
4.06864e-44
2.20836e-43
1.62616e-44
2.1462e-44
1.84489e-45
2.24086e-45
2.07047e-46
1.72686e-46
1.683e-47
1.3769e-47
1.37987e-48
9.21837e-49
9.47762e-50
6.20985e-50
6.47001e-51
3.72622e-51
3.93447e-52
2.21452e-52
2.35328e-53
1.20815e-53
1.29425e-54
6.64525e-55
7.11775e-56
5.03373e-56
4.4638e-57
3.96124e-57
3.03435e-58
4.58706e-58
2.81708e-59
4.08369e-59
2.34025e-60
3.98299e-60
2.15378e-61
3.11577e-61
6.14308e-62
2.45302e-62
1.16375e-60
2.69349e-63
2.90602e-59
2.73139e-62
7.10149e-58
7.03167e-61
1.67279e-56
1.75831e-59
3.85615e-55
4.30201e-58
8.51786e-54
1.01361e-56
1.84552e-52
2.34039e-55
3.79914e-51
5.17046e-54
7.70446e-50
1.12281e-52
1.46602e-48
2.31136e-51
2.76961e-47
4.70325e-50
4.81697e-46
8.9512e-49
8.43431e-45
1.70332e-47
1.31925e-43
2.98833e-46
2.13005e-42
5.4564e-45
2.92173e-41
9.63411e-44
4.33068e-40
2.14677e-42
4.97042e-39
5.7663e-41
6.6976e-38
1.94239e-39
5.5649e-37
6.30436e-38
6.27183e-36
1.80781e-36
5.77848e-36
4.04033e-35
-5.77516e-36
9.34463e-35
4.03606e-35
-6.14913e-36
1.1846e-41
-1.6785e-40
-1.26903e-41
-1.32417e-41
-1.05818e-42
-6.05024e-43
-7.08872e-44
1.96142e-44
-5.72722e-46
1.24123e-44
6.99308e-46
1.41557e-45
9.44133e-47
1.64317e-46
1.15141e-47
1.33512e-47
9.81784e-49
1.10995e-48
8.29618e-50
7.62827e-50
5.83937e-51
5.2478e-51
4.05079e-52
3.19485e-52
2.50026e-53
1.92048e-53