/*--------------------------------*- C++ -*----------------------------------*\
| =========                 |                                                 |
| \\      /  F ield         | OpenFOAM: The Open Source CFD Toolbox           |
|  \\    /   O peration     | Version:  2.4.0                                 |
|   \\  /    A nd           | Web:      www.OpenFOAM.org                      |
|    \\/     M anipulation  |                                                 |
\*---------------------------------------------------------------------------*/
FoamFile
{
    version     2.0;
    format      ascii;
    class       volVectorField;
    location    "0.35";
    object      U;
}
// * * * * * * * * * * * * * * * * * * * * * * * * * * * * * * * * * * * * * //

dimensions      [0 1 -1 0 0 0 0];

internalField   nonuniform List<vector> 
7700
(
(2.26332e-36 5.88073e-37 0)
(3.09662e-35 5.14021e-36 0)
(1.79684e-34 6.26539e-35 0)
(2.87869e-33 5.3485e-35 0)
(2.72799e-33 -1.21943e-34 0)
(-2.72771e-33 -1.21899e-34 0)
(-2.87621e-33 5.41478e-35 0)
(-1.46457e-34 6.84179e-35 0)
(1.79947e-34 7.29855e-35 0)
(3.05863e-33 1.17424e-34 0)
(5.63989e-33 -6.26094e-35 0)
(2.13138e-34 -1.75428e-34 0)
(-2.51482e-33 5.3485e-35 0)
(2.76145e-33 1.16139e-34 0)
(2.88118e-33 -5.41517e-35 0)
(1.79947e-34 -6.27025e-35 0)
(3.09957e-35 -5.14568e-36 0)
(2.2325e-36 -6.18622e-37 0)
(2.44646e-37 -4.45006e-38 0)
(1.72008e-38 -3.87764e-39 0)
(1.46995e-39 -2.57371e-40 0)
(9.66862e-41 -1.8748e-41 0)
(6.97743e-42 -1.14938e-42 0)
(4.52087e-43 -6.92336e-44 0)
(4.5344e-43 6.94721e-44 0)
(7.00286e-42 1.1533e-42 0)
(9.70841e-41 1.88172e-41 0)
(1.4765e-39 2.58447e-40 0)
(1.72905e-38 3.89523e-39 0)
(2.46019e-37 4.47391e-38 0)
(2.24822e-36 6.2224e-37 0)
(3.1223e-35 5.18627e-36 0)
(1.81932e-34 6.32761e-35 0)
(2.90991e-33 5.8671e-35 0)
(2.90991e-33 -5.8671e-35 0)
(1.81932e-34 -6.32761e-35 0)
(3.1223e-35 -5.18627e-36 0)
(2.24822e-36 -6.2224e-37 0)
(2.46019e-37 -4.47391e-38 0)
(1.72905e-38 -3.89523e-39 0)
(1.47649e-39 -2.58464e-40 0)
(9.69939e-41 -1.89802e-41 0)
(6.48491e-42 -2.8852e-42 0)
(-3.77443e-42 -9.99614e-42 0)
(1.27593e-43 -8.20195e-41 0)
(4.74925e-42 -7.24165e-42 0)
(3.63637e-37 -2.72961e-37 0)
(4.47495e-36 -2.63365e-36 0)
(2.7334e-35 -3.21372e-35 0)
(3.03356e-34 -2.74243e-35 0)
(2.80172e-34 6.25268e-35 0)
(-2.80126e-34 6.2505e-35 0)
(-3.02949e-34 -2.77549e-35 0)
(-2.24867e-35 -3.50827e-35 0)
(2.7377e-35 -3.74309e-35 0)
(3.30733e-34 -6.02026e-35 0)
(5.88372e-34 3.21153e-35 0)
(3.22181e-35 8.99511e-35 0)
(-2.47948e-34 -2.74243e-35 0)
(2.85056e-34 -5.95614e-35 0)
(3.03766e-34 2.77568e-35 0)
(2.7377e-35 3.21611e-35 0)
(4.48042e-36 2.63689e-36 0)
(3.67147e-37 3.08796e-37 0)
(3.97887e-38 2.19149e-38 0)
(2.98019e-39 1.87437e-39 0)
(2.55006e-40 1.22902e-40 0)
(1.74139e-41 8.84401e-42 0)
(1.2635e-42 5.37147e-43 0)
(8.39911e-44 3.2097e-44 0)
(8.42485e-44 -3.2206e-44 0)
(1.26825e-42 -5.38953e-43 0)
(1.74877e-41 -8.8761e-42 0)
(2.5619e-40 -1.23405e-40 0)
(2.99633e-39 -1.88267e-39 0)
(4.00261e-38 -2.20289e-38 0)
(3.6987e-37 -3.10546e-37 0)
(4.51719e-36 -2.65691e-36 0)
(2.77039e-35 -3.24477e-35 0)
(3.07873e-34 -3.00811e-35 0)
(3.07873e-34 3.00811e-35 0)
(2.77039e-35 3.24477e-35 0)
(4.51719e-36 2.65691e-36 0)
(3.6987e-37 3.10546e-37 0)
(4.00261e-38 2.20289e-38 0)
(2.99632e-39 1.88265e-39 0)
(2.56068e-40 1.23201e-40 0)
(1.61946e-41 6.92404e-42 0)
(-6.18382e-42 -2.05061e-41 0)
(-6.11473e-41 -1.23012e-40 0)
(1.37843e-42 -1.03189e-39 0)
(6.80927e-41 -9.03582e-41 0)
(6.75991e-38 -4.38486e-38 0)
(6.94716e-37 -4.23538e-37 0)
(2.60996e-36 -4.30953e-36 0)
(2.17122e-35 -3.55163e-36 0)
(1.97406e-35 8.33869e-36 0)
(-1.97312e-35 8.3349e-36 0)
(-2.16395e-35 -3.60547e-36 0)
(-1.8499e-36 -4.78363e-36 0)
(2.61872e-36 -5.16113e-36 0)
(2.43309e-35 -7.96536e-36 0)
(4.22121e-35 4.30571e-36 0)
(3.37741e-36 1.18903e-35 0)
(-1.6362e-35 -3.55162e-36 0)
(2.05081e-35 -7.86112e-36 0)
(2.17855e-35 3.6058e-36 0)
(2.61872e-36 4.31368e-36 0)
(6.955e-37 4.24075e-37 0)
(6.46039e-38 5.00591e-38 0)
(8.07707e-39 3.81568e-39 0)
(6.41731e-40 3.27777e-40 0)
(5.83047e-41 2.23669e-41 0)
(4.10674e-42 1.61992e-42 0)
(3.06885e-43 1.01046e-43 0)
(2.07693e-44 6.07688e-45 0)
(2.08344e-44 -6.09812e-45 0)
(3.08076e-43 -1.01395e-43 0)
(4.12497e-42 -1.626e-42 0)
(5.85919e-41 -2.24614e-41 0)
(6.45528e-40 -3.29295e-40 0)
(8.13123e-39 -3.83642e-39 0)
(6.51867e-38 -5.03643e-38 0)
(7.02927e-37 -4.27559e-37 0)
(2.67513e-36 -4.35988e-36 0)
(2.24151e-35 -3.97916e-36 0)
(2.24151e-35 3.97916e-36 0)
(2.67513e-36 4.35988e-36 0)
(7.02927e-37 4.27559e-37 0)
(6.51867e-38 5.03643e-38 0)
(8.13122e-39 3.8364e-39 0)
(6.45374e-40 3.2912e-40 0)
(5.71179e-41 2.01871e-41 0)
(-1.17395e-41 -2.02859e-41 0)
(-9.1873e-41 -2.38731e-40 0)
(-7.69513e-40 -1.41344e-39 0)
(1.57271e-41 -1.20094e-38 0)
(8.49261e-40 -1.04536e-39 0)
(7.83452e-39 -9.16615e-39 0)
(7.08879e-38 -7.91513e-38 0)
(1.84488e-37 -7.65826e-37 0)
(1.17635e-36 -6.25953e-37 0)
(1.0564e-36 1.4822e-36 0)
(-1.05525e-36 1.48137e-36 0)
(-1.16803e-36 -6.37196e-37 0)
(-1.06187e-37 -8.55504e-37 0)
(1.85552e-37 -9.25126e-37 0)
(1.3619e-36 -1.4135e-36 0)
(2.31095e-36 7.64982e-37 0)
(2.63676e-37 2.10816e-36 0)
(-7.92561e-37 -6.25951e-37 0)
(1.13559e-36 -1.39176e-36 0)
(1.18475e-36 6.37272e-37 0)
(1.85552e-37 7.66733e-37 0)
(7.09649e-38 7.92783e-38 0)
(7.33934e-39 1.0415e-38 0)
(9.80109e-40 8.35161e-40 0)
(8.1994e-41 7.6025e-41 0)
(7.65458e-42 5.3523e-42 0)
(5.55428e-43 3.99499e-43 0)
(4.21454e-44 2.53637e-44 0)
(2.90878e-45 1.54864e-45 0)
(2.9181e-45 -1.55415e-45 0)
(4.23136e-44 -2.54535e-44 0)
(5.57978e-43 -4.01048e-43 0)
(7.69396e-42 -5.37602e-42 0)
(8.2507e-41 -7.63989e-41 0)
(9.87203e-40 -8.40111e-40 0)
(7.41359e-39 -1.04856e-38 0)
(7.18619e-38 -8.00366e-38 0)
(1.91896e-37 -7.76303e-37 0)
(1.24821e-36 -7.05983e-37 0)
(1.24821e-36 7.05983e-37 0)
(1.91896e-37 7.76303e-37 0)
(7.18619e-38 8.00366e-38 0)
(7.41358e-39 1.04856e-38 0)
(9.8707e-40 8.39961e-40 0)
(8.07852e-41 7.45286e-41 0)
(-8.86295e-42 -1.91074e-41 0)
(-1.796e-40 -2.37683e-40 0)
(-1.05953e-39 -2.64004e-39 0)
(-8.96342e-39 -1.58791e-38 0)
(1.61377e-40 -1.3795e-37 0)
(9.8017e-39 -1.18499e-38 0)
(8.4785e-40 -1.92283e-39 0)
(7.8919e-39 -9.42569e-39 0)
(1.23471e-38 -8.36473e-38 0)
(4.32081e-38 -6.72748e-38 0)
(3.79637e-38 1.61445e-37 0)
(-3.78154e-38 1.6134e-37 0)
(-4.22058e-38 -6.86441e-38 0)
(-3.61516e-39 -9.40895e-38 0)
(1.24724e-38 -1.02188e-37 0)
(5.56721e-38 -1.53467e-37 0)
(8.98715e-38 8.34304e-38 0)
(2.11704e-38 2.28709e-37 0)
(-1.67708e-38 -6.72618e-38 0)
(4.67962e-38 -1.50799e-37 0)
(4.42045e-38 6.86541e-38 0)
(1.24724e-38 8.36557e-38 0)
(7.85247e-39 9.2769e-39 0)
(8.69376e-40 1.27577e-39 0)
(1.24687e-40 1.07287e-40 0)
(1.07779e-41 1.00209e-41 0)
(1.03645e-42 7.26712e-43 0)
(7.66132e-44 5.50791e-44 0)
(5.90142e-45 3.56453e-45 0)
(4.11942e-46 2.1967e-46 0)
(4.13278e-46 -2.20468e-46 0)
(5.92541e-45 -3.57744e-45 0)
(7.69739e-44 -5.52987e-44 0)
(1.04196e-42 -7.30042e-43 0)
(1.08486e-41 -1.00724e-41 0)
(1.25646e-40 -1.07958e-40 0)
(8.79105e-40 -1.28505e-39 0)
(7.96622e-39 -9.37405e-39 0)
(1.3215e-38 -8.48227e-38 0)
(5.1166e-38 -7.66352e-38 0)
(5.1166e-38 7.66352e-38 0)
(1.3215e-38 8.48227e-38 0)
(7.96621e-39 9.37405e-39 0)
(8.78992e-40 1.28496e-39 0)
(1.24227e-40 1.06548e-40 0)
(-7.70519e-42 -7.67677e-42 0)
(-1.7903e-40 -2.34057e-40 0)
(-1.99321e-39 -2.31152e-39 0)
(-1.19146e-38 -2.60447e-38 0)
(-1.03083e-37 -1.60465e-37 0)
(1.5662e-39 -1.41705e-36 0)
(1.11608e-37 -1.2128e-37 0)
(-1.19443e-39 -8.71681e-39 0)
(1.28913e-39 -2.96941e-39 0)
(9.20049e-40 -1.11174e-38 0)
(6.16231e-40 -8.05157e-39 0)
(4.05807e-40 1.90651e-38 0)
(-3.79336e-40 1.90708e-38 0)
(-4.34689e-40 -8.08572e-39 0)
(2.26014e-41 -1.11665e-38 0)
(8.13772e-40 -1.21444e-38 0)
(1.34769e-39 -1.81245e-38 0)
(1.75098e-39 9.8598e-39 0)
(1.63358e-39 2.69945e-38 0)
(1.23978e-39 -7.90773e-39 0)
(1.22992e-39 -1.77816e-38 0)
(6.34152e-40 8.08689e-39 0)
(8.13771e-40 9.8896e-39 0)
(7.36121e-40 1.12887e-39 0)
(8.62286e-41 1.63733e-40 0)
(1.28713e-41 1.41743e-41 0)
(1.14727e-42 1.36213e-42 0)
(1.12389e-43 1.00612e-43 0)
(8.4668e-45 7.74125e-45 0)
(6.59208e-46 5.06483e-46 0)
(4.6601e-47 3.1452e-47 0)
(4.67543e-47 -3.15675e-47 0)
(6.61937e-46 -5.08344e-46 0)
(8.50756e-45 -7.7727e-45 0)
(1.13004e-43 -1.01084e-43 0)
(1.15507e-42 -1.36936e-42 0)
(1.29751e-41 -1.42671e-41 0)
(8.72622e-41 -1.64994e-40 0)
(7.47828e-40 -1.14166e-39 0)
(8.86903e-40 -1.0039e-38 0)
(1.28174e-39 -9.0493e-39 0)
(1.28174e-39 9.0493e-39 0)
(8.86898e-40 1.0039e-38 0)
(7.47757e-40 1.14161e-39 0)
(8.61895e-41 1.64147e-40 0)
(-5.07859e-43 1.40734e-42 0)
(-1.77021e-40 -1.62037e-40 0)
(-1.75044e-39 -2.20063e-39 0)
(-1.96848e-38 -2.20366e-38 0)
(-1.20475e-37 -2.55295e-37 0)
(-1.05987e-36 -1.62301e-36 0)
(1.22741e-38 -1.48341e-35 0)
(1.13251e-36 -1.24629e-36 0)
(-1.32103e-38 -8.97157e-38 0)
(6.18001e-39 -1.87268e-38 0)
(1.41794e-39 -1.34872e-38 0)
(8.20269e-40 -2.18446e-39 0)
(-1.3849e-42 1.63511e-39 0)
(1.27544e-40 1.82554e-39 0)
(1.25296e-40 -7.78906e-40 0)
(2.0391e-41 -1.08589e-39 0)
(6.07928e-41 -1.18359e-39 0)
(-5.3147e-41 -1.74954e-39 0)
(-1.44079e-40 9.53844e-40 0)
(1.40102e-40 2.6043e-39 0)
(2.49932e-40 -7.58604e-40 0)
(-2.88299e-41 -1.71395e-39 0)
(-1.03919e-40 7.77226e-40 0)
(6.07817e-41 9.57027e-40 0)
(7.10153e-41 1.13437e-40 0)
(8.57081e-42 1.69737e-41 0)
(1.32113e-42 1.51261e-42 0)
(1.19992e-43 1.47992e-43 0)
(1.19386e-44 1.11397e-44 0)
(9.10107e-46 8.66331e-46 0)
(7.14514e-47 5.73815e-47 0)
(5.08894e-48 3.58546e-48 0)
(5.10581e-48 -3.5988e-48 0)
(7.17506e-47 -5.75953e-47 0)
(9.14556e-46 -8.69916e-46 0)
(1.20052e-44 -1.11932e-44 0)
(1.2083e-43 -1.488e-43 0)
(1.33214e-42 -1.52287e-42 0)
(8.67872e-42 -1.71104e-41 0)
(7.22146e-41 -1.148e-40 0)
(6.80074e-41 -9.72466e-40 0)
(-4.17151e-41 -8.73392e-40 0)
(-4.17175e-41 8.73391e-40 0)
(6.79642e-41 9.72441e-40 0)
(7.1569e-41 1.14382e-40 0)
(-1.11644e-42 1.08358e-41 0)
(-1.23006e-40 -9.46209e-41 0)
(-1.67248e-39 -1.23587e-39 0)
(-1.6706e-38 -1.69122e-38 0)
(-1.93028e-37 -1.73439e-37 0)
(-1.21701e-36 -2.06286e-36 0)
(-1.10886e-35 -1.38053e-35 0)
(8.61984e-38 -1.28832e-34 0)
(1.16929e-35 -1.08525e-35 0)
(-1.27788e-37 -8.12888e-37 0)
(7.37321e-38 -1.82706e-37 0)
(1.48466e-38 -1.29438e-37 0)
(9.46387e-39 -1.43732e-38 0)
(1.06061e-39 -1.88367e-39 0)
(1.73617e-40 2.62394e-42 0)
(3.03012e-41 -9.33112e-41 0)
(3.80166e-42 -1.08192e-40 0)
(4.76206e-42 -1.16772e-40 0)
(-1.06253e-41 -1.71666e-40 0)
(-2.26579e-41 9.36514e-41 0)
(1.15744e-41 2.55423e-40 0)
(2.58921e-41 -7.41829e-41 0)
(-7.24718e-42 -1.67992e-40 0)
(-1.43932e-41 7.61031e-41 0)
(4.65759e-42 9.39857e-41 0)
(6.17522e-42 1.1361e-41 0)
(7.66241e-43 1.74725e-42 0)
(1.20481e-43 1.58519e-43 0)
(1.11464e-44 1.57472e-44 0)
(1.12108e-45 1.19941e-45 0)
(8.64999e-47 9.40575e-47 0)
(6.83459e-48 6.27504e-48 0)
(4.90678e-49 3.93712e-49 0)
(4.92318e-49 -3.95186e-49 0)
(6.86354e-48 -6.29862e-48 0)
(8.69286e-47 -9.44511e-47 0)
(1.12745e-45 -1.20526e-45 0)
(1.1226e-44 -1.5835e-44 0)
(1.21515e-43 -1.59623e-43 0)
(7.76252e-43 -1.76179e-42 0)
(6.28438e-42 -1.15036e-41 0)
(5.30105e-42 -9.55721e-41 0)
(-9.00774e-42 -8.56859e-41 0)
(-9.02554e-42 8.56749e-41 0)
(4.98148e-42 9.53947e-41 0)
(1.48557e-42 8.46948e-42 0)
(-7.27012e-41 -4.42928e-41 0)
(-9.43369e-40 -7.18844e-40 0)
(-1.28876e-38 -9.39614e-39 0)
(-1.31633e-37 -1.32469e-37 0)
(-1.55779e-36 -1.40101e-36 0)
(-1.02764e-35 -1.75348e-35 0)
(-9.57243e-35 -1.25153e-34 0)
(2.44547e-37 -1.24083e-33 0)
(9.87454e-35 -1.01223e-34 0)
(-9.17516e-37 -7.68125e-36 0)
(8.93615e-37 -1.56352e-36 0)
(1.69721e-37 -1.08052e-36 0)
(9.88569e-38 -1.16597e-37 0)
(1.07912e-38 -1.612e-38 0)
(1.56045e-39 -1.34629e-39 0)
(1.36478e-40 -1.35194e-40 0)
(1.32873e-41 -1.87754e-41 0)
(1.34647e-42 -1.09884e-41 0)
(-1.0425e-42 -1.50669e-41 0)
(-2.28228e-42 8.20315e-42 0)
(9.75611e-43 2.23411e-41 0)
(2.36589e-42 -6.46423e-42 0)
(-7.80383e-43 -1.46851e-41 0)
(-1.41738e-42 6.63993e-42 0)
(3.78787e-43 8.23728e-42 0)
(5.31676e-43 1.01941e-42 0)
(6.70463e-44 1.59606e-43 0)
(1.07041e-44 1.47441e-44 0)
(1.00225e-45 1.48042e-45 0)
(1.0164e-46 1.14124e-46 0)
(7.90408e-48 9.00705e-48 0)
(6.27285e-49 6.05588e-49 0)
(4.52526e-50 3.81277e-50 0)
(4.54045e-50 -3.82714e-50 0)
(6.29959e-49 -6.07884e-49 0)
(7.9436e-48 -9.04517e-48 0)
(1.02224e-46 -1.14689e-46 0)
(1.00952e-45 -1.48881e-45 0)
(1.07977e-44 -1.48491e-44 0)
(6.79445e-44 -1.60972e-43 0)
(5.41339e-43 -1.03266e-42 0)
(4.34495e-43 -8.38205e-42 0)
(-9.62755e-43 -7.49935e-42 0)
(-1.0911e-42 7.44854e-42 0)
(-1.89717e-42 7.55545e-42 0)
(-3.48393e-41 -1.32105e-41 0)
(-5.51825e-40 -2.18183e-40 0)
(-7.20129e-39 -3.45418e-39 0)
(-1.01219e-37 -4.61107e-38 0)
(-1.06222e-36 -6.68348e-37 0)
(-1.31517e-35 -7.47015e-36 0)
(-9.11555e-35 -9.92369e-35 0)
(-9.05298e-34 -8.11407e-34 0)
(-8.74595e-37 -8.25411e-33 0)
(9.16415e-34 -6.87937e-34 0)
(-3.84602e-36 -5.61662e-35 0)
(1.30221e-35 -1.35981e-35 0)
(1.93499e-36 -1.0241e-35 0)
(8.4211e-37 -1.0463e-36 0)
(8.78272e-38 -1.39454e-37 0)
(1.20998e-38 -1.12917e-38 0)
(1.02261e-39 -1.04128e-39 0)
(9.69773e-41 -7.46723e-41 0)
(7.11922e-42 -6.43986e-42 0)
(4.48116e-43 -1.64734e-42 0)
(-1.55665e-43 6.83842e-43 0)
(7.93172e-44 1.92125e-42 0)
(1.91992e-43 -5.55065e-43 0)
(-6.61528e-44 -1.26321e-42 0)
(-1.17583e-43 5.70572e-43 0)
(2.94089e-44 7.0969e-43 0)
(4.23348e-44 8.90985e-44 0)
(5.43008e-45 1.4141e-44 0)
(8.75866e-46 1.32157e-45 0)
(8.30072e-47 1.33712e-46 0)
(8.46867e-48 1.03861e-47 0)
(6.6383e-49 8.22977e-49 0)
(5.28643e-50 5.55792e-50 0)
(3.83289e-51 3.50476e-51 0)
(3.84577e-51 -3.51802e-51 0)
(5.30901e-50 -5.57909e-50 0)
(6.67153e-49 -8.26487e-49 0)
(8.51735e-48 -1.0438e-47 0)
(8.36056e-47 -1.34482e-46 0)
(8.83402e-46 -1.3312e-45 0)
(5.49917e-45 -1.42659e-44 0)
(4.30191e-44 -9.03188e-44 0)
(3.19274e-44 -7.23181e-43 0)
(-1.1851e-43 -6.58397e-43 0)
(-7.26435e-43 3.96482e-43 0)
(-1.10907e-41 -3.58789e-42 0)
(-1.70496e-40 -7.57327e-41 0)
(-2.69516e-39 -1.17955e-39 0)
(-3.58796e-38 -1.92436e-38 0)
(-5.15837e-37 -2.63354e-37 0)
(-5.63521e-36 -4.03827e-36 0)
(-7.23792e-35 -4.809e-35 0)
(-5.44593e-34 -7.16075e-34 0)
(-5.5906e-33 -6.77391e-33 0)
(-2.74283e-35 -7.83064e-32 0)
(5.33535e-33 -6.0369e-33 0)
(-1.6598e-36 -4.40884e-37 0)
(-2.47438e-35 -3.9908e-36 0)
(-1.46991e-34 -5.38844e-35 0)
(-2.60532e-33 -4.67396e-35 0)
(-2.48161e-33 1.05111e-34 0)
(2.48161e-33 1.05111e-34 0)
(2.60532e-33 -4.67396e-35 0)
(1.46991e-34 -5.38844e-35 0)
(2.47506e-35 -3.99176e-36 0)
(1.62713e-36 -4.61616e-37 0)
(1.72286e-37 -3.05169e-38 0)
(1.1104e-38 -2.55871e-39 0)
(-1.31749e-44 -3.13533e-40 0)
(-1.11042e-38 -2.55875e-39 0)
(-1.72289e-37 -3.05176e-38 0)
(-1.62718e-36 -4.61627e-37 0)
(-2.47516e-35 -3.99191e-36 0)
(-1.47002e-34 -5.38869e-35 0)
(-2.60549e-33 -4.67703e-35 0)
(-2.48325e-33 1.04646e-34 0)
(2.45669e-33 1.01088e-34 0)
(2.45669e-33 -1.01088e-34 0)
(-2.48325e-33 -1.04646e-34 0)
(-2.60549e-33 4.67703e-35 0)
(-1.47002e-34 5.38869e-35 0)
(-2.47516e-35 3.99191e-36 0)
(-1.62724e-36 4.61616e-37 0)
(-1.73211e-37 3.03596e-38 0)
(-2.23719e-38 -1.0266e-41 0)
(-1.74066e-37 -3.0506e-38 0)
(-1.63748e-36 -4.64007e-37 0)
(-2.49126e-35 -4.01987e-36 0)
(-1.48456e-34 -5.43179e-35 0)
(-2.6286e-33 -5.02978e-35 0)
(-2.60532e-33 5.47845e-35 0)
(-4.23795e-41 1.08697e-34 0)
(2.60532e-33 5.47843e-35 0)
(2.6286e-33 -5.02998e-35 0)
(1.4829e-34 -5.43214e-35 0)
(2.40319e-35 -3.74046e-36 0)
(-2.66821e-37 2.05436e-37 0)
(-3.56296e-36 2.04458e-36 0)
(-2.24167e-35 2.76367e-35 0)
(-2.7548e-34 2.39646e-35 0)
(-2.56386e-34 -5.38932e-35 0)
(2.56386e-34 -5.38932e-35 0)
(2.7548e-34 2.39646e-35 0)
(2.24168e-35 2.76367e-35 0)
(3.56438e-36 2.04541e-36 0)
(2.67453e-37 2.3015e-37 0)
(2.79044e-38 1.50151e-38 0)
(1.92073e-39 1.23534e-39 0)
(-2.45509e-45 1.49601e-40 0)
(-1.92077e-39 1.23536e-39 0)
(-2.79051e-38 1.50154e-38 0)
(-2.67463e-37 2.30155e-37 0)
(-3.56454e-36 2.04549e-36 0)
(-2.24187e-35 2.7638e-35 0)
(-2.75508e-34 2.39797e-35 0)
(-2.56656e-34 -5.36618e-35 0)
(2.52794e-34 -5.18327e-35 0)
(2.52794e-34 5.18327e-35 0)
(-2.56656e-34 5.36618e-35 0)
(-2.75508e-34 -2.39797e-35 0)
(-2.24187e-35 -2.7638e-35 0)
(-3.56454e-36 -2.04549e-36 0)
(-2.67473e-37 -2.3015e-37 0)
(-2.80645e-38 -1.494e-38 0)
(-3.87093e-39 4.84186e-42 0)
(-2.82117e-38 1.501e-38 0)
(-2.69245e-37 2.31305e-37 0)
(-3.5905e-36 2.05927e-36 0)
(-2.26581e-35 2.7853e-35 0)
(-2.78803e-34 2.57937e-35 0)
(-2.7548e-34 -2.80856e-35 0)
(-8.79364e-42 -5.57362e-35 0)
(2.7548e-34 -2.80855e-35 0)
(2.78802e-34 2.57944e-35 0)
(2.26276e-35 2.78465e-35 0)
(3.40133e-36 1.65072e-36 0)
(-4.98046e-38 3.2911e-38 0)
(-5.59491e-37 3.29435e-37 0)
(-2.14966e-36 3.71421e-36 0)
(-1.98375e-35 3.12224e-36 0)
(-1.82054e-35 -7.20604e-36 0)
(1.82054e-35 -7.20604e-36 0)
(1.98375e-35 3.12224e-36 0)
(2.14965e-36 3.71421e-36 0)
(5.59539e-37 3.29561e-37 0)
(4.73324e-38 3.71975e-38 0)
(5.70033e-39 2.61173e-39 0)
(4.14886e-40 2.15254e-40 0)
(-6.16738e-46 2.71738e-41 0)
(-4.14896e-40 2.15257e-40 0)
(-5.7005e-39 2.61178e-39 0)
(-4.73348e-38 3.71984e-38 0)
(-5.59575e-37 3.29574e-37 0)
(-2.15007e-36 3.71442e-36 0)
(-1.98433e-35 3.12486e-36 0)
(-1.82532e-35 -7.16863e-36 0)
(1.76401e-35 -6.87386e-36 0)
(1.76401e-35 6.87386e-36 0)
(-1.82532e-35 7.16863e-36 0)
(-1.98433e-35 -3.12486e-36 0)
(-2.15007e-36 -3.71442e-36 0)
(-5.59575e-37 -3.29574e-37 0)
(-4.73372e-38 -3.71975e-38 0)
(-5.73709e-39 -2.59809e-39 0)
(-8.36733e-40 8.8204e-43 0)
(-5.7708e-39 2.61079e-39 0)
(-4.7718e-38 3.73981e-38 0)
(-5.64856e-37 3.31971e-37 0)
(-2.19166e-36 3.74899e-36 0)
(-2.0355e-35 3.41701e-36 0)
(-1.98375e-35 -3.78661e-36 0)
(-7.93332e-43 -7.50324e-36 0)
(1.98375e-35 -3.7866e-36 0)
(2.0355e-35 3.41715e-36 0)
(2.19035e-36 3.74803e-36 0)
(5.58266e-37 2.65923e-37 0)
(-5.79587e-39 6.86019e-39 0)
(-5.74833e-38 6.16149e-38 0)
(-1.52705e-37 6.60741e-37 0)
(-1.08414e-36 5.51391e-37 0)
(-9.84164e-37 -1.28219e-36 0)
(9.84164e-37 -1.28219e-36 0)
(1.08414e-36 5.51391e-37 0)
(1.52702e-37 6.60741e-37 0)
(5.74768e-38 6.16552e-38 0)
(5.39677e-39 7.77137e-39 0)
(6.93041e-40 5.73259e-40 0)
(5.30695e-41 5.01115e-41 0)
(-8.71102e-47 6.51738e-42 0)
(-5.30709e-41 5.01124e-41 0)
(-6.93065e-40 5.73273e-40 0)
(-5.39709e-39 7.77161e-39 0)
(-5.74816e-38 6.16585e-38 0)
(-1.52756e-37 6.60791e-37 0)
(-1.08484e-36 5.51968e-37 0)
(-9.89614e-37 -1.27436e-36 0)
(9.25989e-37 -1.21995e-36 0)
(9.25989e-37 1.21995e-36 0)
(-9.89614e-37 1.27436e-36 0)
(-1.08484e-36 -5.51968e-37 0)
(-1.52756e-37 -6.60791e-37 0)
(-5.74816e-38 -6.16585e-38 0)
(-5.39741e-39 -7.77137e-39 0)
(-6.9787e-40 -5.69988e-40 0)
(-1.0708e-40 2.17787e-43 0)
(-7.02287e-40 5.73027e-40 0)
(-5.44602e-39 7.81798e-39 0)
(-5.8121e-38 6.21816e-38 0)
(-1.57455e-37 6.67986e-37 0)
(-1.13687e-36 6.05801e-37 0)
(-1.08414e-36 -6.75855e-37 0)
(-4.38701e-44 -1.33712e-36 0)
(1.08414e-36 -6.75854e-37 0)
(1.13687e-36 6.05808e-37 0)
(1.57533e-37 6.67635e-37 0)
(5.87025e-38 4.89418e-38 0)
(-7.11346e-40 8.36113e-40 0)
(-6.40393e-39 7.21598e-39 0)
(-1.02994e-38 7.21638e-38 0)
(-4.11856e-38 5.94229e-38 0)
(-3.67285e-38 -1.39842e-37 0)
(3.67285e-38 -1.39842e-37 0)
(4.11856e-38 5.94229e-38 0)
(1.02989e-38 7.2164e-38 0)
(6.40101e-39 7.22176e-39 0)
(6.41138e-40 9.52776e-40 0)
(8.84201e-41 7.37202e-41 0)
(6.98572e-42 6.60707e-42 0)
(-1.24333e-47 8.85171e-43 0)
(-6.98592e-42 6.60719e-42 0)
(-8.84234e-41 7.37221e-41 0)
(-6.41183e-40 9.52808e-40 0)
(-6.40166e-39 7.2222e-39 0)
(-1.0306e-38 7.21706e-38 0)
(-4.12746e-38 5.94971e-38 0)
(-3.73767e-38 -1.38883e-37 0)
(3.02385e-38 -1.32546e-37 0)
(3.02385e-38 1.32546e-37 0)
(-3.73767e-38 1.38883e-37 0)
(-4.12746e-38 -5.94971e-38 0)
(-1.0306e-38 -7.21706e-38 0)
(-6.40167e-39 -7.2222e-39 0)
(-6.41228e-40 -9.52776e-40 0)
(-8.90753e-41 -7.32758e-41 0)
(-1.41014e-41 2.99716e-44 0)
(-8.96734e-41 7.36881e-41 0)
(-6.47608e-40 9.58907e-40 0)
(-6.48301e-39 7.28931e-39 0)
(-1.0858e-38 7.30492e-38 0)
(-4.70274e-38 6.57595e-38 0)
(-4.11856e-38 -7.40148e-38 0)
(6.11569e-45 -1.46247e-37 0)
(4.11857e-38 -7.40147e-38 0)
(4.70306e-38 6.57591e-38 0)
(1.09019e-38 7.29966e-38 0)
(6.74499e-39 5.67212e-39 0)
(-7.19311e-41 1.07304e-40 0)
(-6.02648e-40 8.78282e-40 0)
(-6.74459e-40 8.53556e-39 0)
(-6.73147e-40 6.99541e-39 0)
(-5.45703e-40 -1.65435e-38 0)
(5.45702e-40 -1.65435e-38 0)
(6.73144e-40 6.99541e-39 0)
(6.74402e-40 8.5356e-39 0)
(6.0221e-40 8.79211e-40 0)
(6.3706e-41 1.22519e-40 0)
(9.13869e-42 9.75295e-42 0)
(7.44126e-43 8.9951e-43 0)
(-1.41465e-48 1.22671e-43 0)
(-7.44149e-43 8.99527e-43 0)
(-9.13906e-42 9.75322e-42 0)
(-6.37109e-41 1.22524e-40 0)
(-6.02281e-40 8.79272e-40 0)
(-6.75156e-40 8.5365e-39 0)
(-6.82354e-40 7.00523e-39 0)
(-6.10162e-40 -1.642e-38 0)
(-6.57173e-41 -1.56544e-38 0)
(-6.57173e-41 1.56544e-38 0)
(-6.10162e-40 1.642e-38 0)
(-6.82354e-40 -7.00523e-39 0)
(-6.75156e-40 -8.5365e-39 0)
(-6.02281e-40 -8.79272e-40 0)
(-6.37158e-41 -1.22519e-40 0)
(-9.20979e-42 -9.69136e-42 0)
(-1.50262e-42 4.21282e-45 0)
(-9.27457e-42 9.74844e-42 0)
(-6.43944e-41 1.23353e-40 0)
(-6.10666e-40 8.88125e-40 0)
(-7.29652e-40 8.6492e-39 0)
(-1.2201e-39 7.76102e-39 0)
(-6.73144e-40 -8.77346e-39 0)
(1.4706e-45 -1.7318e-38 0)
(6.73172e-40 -8.77347e-39 0)
(1.22058e-39 7.76074e-39 0)
(7.36041e-40 8.64087e-39 0)
(6.46982e-40 6.81413e-40 0)
(-6.79073e-42 1.2089e-41 0)
(-5.83563e-41 8.78341e-41 0)
(-5.05001e-41 8.26453e-40 0)
(8.51635e-41 6.72254e-40 0)
(8.29382e-41 -1.60102e-39 0)
(-8.29379e-41 -1.60102e-39 0)
(-8.51615e-41 6.72259e-40 0)
(5.05192e-41 8.26501e-40 0)
(5.82136e-41 8.84034e-41 0)
(6.33849e-42 1.27111e-41 0)
(9.39087e-43 1.04159e-42 0)
(7.7875e-44 9.77698e-44 0)
(-1.55105e-49 1.35867e-44 0)
(-7.78774e-44 9.77717e-44 0)
(-9.39126e-43 1.04162e-42 0)
(-6.33902e-42 1.27116e-41 0)
(-5.82211e-41 8.84102e-41 0)
(-5.05981e-41 8.26599e-40 0)
(8.42149e-41 6.73307e-40 0)
(7.65205e-41 -1.58821e-39 0)
(-1.42098e-40 -1.51157e-39 0)
(-1.42098e-40 1.51157e-39 0)
(7.65205e-41 1.58821e-39 0)
(8.42149e-41 -6.73307e-40 0)
(-5.05981e-41 -8.26599e-40 0)
(-5.82211e-41 -8.84102e-41 0)
(-6.33955e-42 -1.27111e-41 0)
(-9.46646e-43 -1.03477e-42 0)
(-1.57295e-43 4.70982e-46 0)
(-9.53524e-43 1.04109e-42 0)
(-6.41047e-42 1.28015e-41 0)
(-5.90813e-41 8.9354e-41 0)
(-5.599e-41 8.38262e-40 0)
(3.24187e-41 7.48902e-40 0)
(8.51615e-41 -8.51162e-40 0)
(2.43951e-46 -1.67862e-39 0)
(-8.51573e-41 -8.51164e-40 0)
(-3.23563e-41 7.48857e-40 0)
(5.68094e-41 8.37284e-40 0)
(6.36057e-41 6.79479e-41 0)
(1.17097e-41 2.9794e-41 0)
(-4.82673e-42 2.29252e-42 0)
(-3.49993e-42 8.05961e-41 0)
(1.23306e-41 6.57513e-41 0)
(1.15993e-41 -1.5729e-40 0)
(-1.15961e-41 -1.57287e-40 0)
(-1.22974e-41 6.58027e-41 0)
(3.87858e-42 8.11966e-41 0)
(5.06773e-42 8.85694e-42 0)
(5.6707e-43 1.30966e-42 0)
(8.56859e-44 1.09233e-43 0)
(7.23651e-45 1.04105e-44 0)
(-1.50011e-50 1.46354e-45 0)
(-7.23675e-45 1.04107e-44 0)
(-8.56897e-44 1.09237e-43 0)
(-5.6712e-43 1.30972e-42 0)
(-5.06843e-42 8.85768e-42 0)
(-3.88591e-42 8.12071e-41 0)
(1.2211e-41 6.59127e-41 0)
(1.10219e-41 -1.55966e-40 0)
(-1.67504e-41 -1.48319e-40 0)
(-1.67504e-41 1.48319e-40 0)
(1.10219e-41 1.55966e-40 0)
(1.2211e-41 -6.59127e-41 0)
(-3.88591e-42 -8.12071e-41 0)
(-5.06843e-42 -8.85767e-42 0)
(-5.67171e-43 -1.30966e-42 0)
(-8.6396e-44 -1.08498e-43 0)
(-1.46198e-44 5.11212e-47 0)
(-8.70413e-44 1.09179e-43 0)
(-5.73754e-43 1.31928e-42 0)
(-5.14679e-42 8.95649e-42 0)
(-4.36659e-42 8.24067e-41 0)
(7.71769e-42 7.34496e-41 0)
(1.22974e-41 -8.37365e-41 0)
(2.89618e-47 -1.65033e-40 0)
(-1.22969e-41 -8.37369e-41 0)
(-7.7111e-42 7.34432e-41 0)
(4.45062e-42 8.22949e-41 0)
(5.60278e-42 6.75416e-42 0)
(4.19466e-40 1.42929e-41 0)
(1.05137e-41 -6.85583e-41 0)
(5.63638e-42 8.99553e-43 0)
(1.6862e-42 5.3035e-42 0)
(1.18161e-42 -1.3812e-41 0)
(-1.14153e-42 -1.37873e-41 0)
(-1.22204e-42 5.74057e-42 0)
(3.15705e-43 7.11921e-42 0)
(4.36581e-43 7.95051e-43 0)
(4.96391e-44 1.19683e-43 0)
(7.61628e-45 1.01645e-44 0)
(6.5087e-46 9.78888e-46 0)
(-1.38387e-51 1.39281e-46 0)
(-6.50892e-46 9.78909e-46 0)
(-7.61663e-45 1.01649e-44 0)
(-4.96437e-44 1.19688e-43 0)
(-4.36645e-43 7.95121e-43 0)
(-3.16357e-43 7.12019e-42 0)
(1.2145e-42 5.75088e-42 0)
(1.09362e-42 -1.36651e-41 0)
(-1.58818e-42 -1.29805e-41 0)
(-1.58818e-42 1.29805e-41 0)
(1.09362e-42 1.36651e-41 0)
(1.2145e-42 -5.75088e-42 0)
(-3.16357e-43 -7.12019e-42 0)
(-4.36645e-43 -7.95121e-43 0)
(-4.96483e-44 -1.19683e-43 0)
(-7.68069e-45 -1.00946e-44 0)
(-1.31516e-45 4.89177e-48 0)
(-7.73916e-45 1.01593e-44 0)
(-5.024e-44 1.20587e-43 0)
(-4.43602e-43 8.04306e-43 0)
(-3.58315e-43 7.22964e-42 0)
(8.28219e-43 6.42527e-42 0)
(1.22218e-42 -7.35122e-42 0)
(3.13585e-48 -1.44798e-41 0)
(-1.22213e-42 -7.35126e-42 0)
(-8.27566e-43 6.42457e-42 0)
(3.66484e-43 7.21862e-42 0)
(4.87524e-43 6.03281e-43 0)
(1.17983e-38 5.87627e-39 0)
(8.84455e-40 -8.64487e-40 0)
(7.75905e-41 -7.69517e-41 0)
(5.21549e-42 -4.03133e-42 0)
(4.23744e-43 -1.44268e-42 0)
(-7.57348e-44 -1.2007e-42 0)
(-1.00687e-43 4.9258e-43 0)
(2.45805e-44 6.1349e-43 0)
(3.4781e-44 6.95065e-44 0)
(4.02194e-45 1.06077e-44 0)
(6.23339e-46 9.11396e-46 0)
(5.39149e-47 8.84307e-47 0)
(-1.05966e-52 1.26772e-47 0)
(-5.39165e-47 8.84327e-47 0)
(-6.23362e-46 9.11429e-46 0)
(-4.02219e-45 1.06083e-44 0)
(-3.47836e-44 6.95143e-44 0)
(-2.45794e-44 6.13609e-43 0)
(1.0112e-43 4.94144e-43 0)
(9.0866e-44 -1.17717e-42 0)
(-1.30349e-43 -1.11744e-42 0)
(-1.30349e-43 1.11744e-42 0)
(9.0866e-44 1.17717e-42 0)
(1.0112e-43 -4.94144e-43 0)
(-2.45794e-44 -6.13609e-43 0)
(-3.47836e-44 -6.95142e-44 0)
(-4.02258e-45 -1.06078e-44 0)
(-6.287e-46 -9.05032e-46 0)
(-1.08956e-46 4.46774e-49 0)
(-6.33568e-46 9.1092e-46 0)
(-4.07156e-45 1.06894e-44 0)
(-3.53523e-44 7.03372e-44 0)
(-2.79725e-44 6.23299e-43 0)
(7.04178e-44 5.52956e-43 0)
(1.01748e-43 -6.34077e-43 0)
(2.95356e-49 -1.24843e-42 0)
(-1.01744e-43 -6.34082e-43 0)
(-7.03601e-44 5.52884e-43 0)
(2.86799e-44 6.22259e-43 0)
(3.91362e-44 5.25377e-44 0)
(7.66143e-35 -5.88142e-34 0)
(2.16708e-34 -1.03367e-34 0)
(2.81297e-35 -7.01076e-35 0)
(9.74053e-36 -6.88157e-36 0)
(9.37055e-37 -8.39775e-37 0)
(1.23475e-37 -6.54175e-38 0)
(9.99248e-39 -5.76605e-39 0)
(9.2744e-40 -4.00186e-40 0)
(6.60431e-41 -2.94856e-41 0)
(4.98237e-42 -1.93172e-42 0)
(3.08061e-43 -7.86849e-44 0)
(2.52043e-44 1.0421e-43 0)
(1.22376e-44 -3.23964e-44 0)
(-3.79123e-45 -7.29969e-44 0)
(-6.80989e-45 3.29307e-44 0)
(1.6606e-45 4.10691e-44 0)
(2.41639e-45 5.23881e-45 0)
(3.1268e-46 8.4776e-46 0)
(5.07355e-47 8.03987e-47 0)
(4.83788e-48 8.23973e-48 0)
(4.94837e-49 6.47198e-49 0)
(3.89192e-50 5.17233e-50 0)
(3.10063e-51 3.52112e-51 0)
(2.2505e-52 2.23219e-52 0)
(2.25568e-52 -2.24068e-52 0)
(3.10783e-51 -3.5346e-51 0)
(3.89722e-50 -5.19448e-50 0)
(4.9441e-49 -6.50444e-49 0)
(4.80047e-48 -8.28707e-48 0)
(4.96026e-47 -8.09756e-47 0)
(2.84339e-46 -8.54961e-46 0)
(1.79798e-45 -5.30309e-45 0)
(-1.07026e-44 -4.16816e-44 0)
(-2.44064e-43 -3.44416e-44 0)
(-4.15863e-42 8.95916e-44 0)
(-7.31424e-41 9.25567e-43 0)
(-1.13969e-39 1.46084e-41 0)
(-1.85726e-38 2.0966e-40 0)
(-2.52921e-37 2.60566e-39 0)
(-3.80954e-36 6.94191e-39 0)
(-4.30829e-35 -9.2805e-37 0)
(-5.97969e-34 -4.59098e-35 0)
(-4.77419e-33 -1.35916e-33 0)
(-5.73086e-32 -2.82434e-32 0)
(1.62447e-34 -3.34152e-31 0)
(5.74311e-32 -2.83044e-32 0)
(3.68025e-33 -3.98933e-33 0)
(5.7701e-33 -1.15516e-33 0)
(5.40615e-34 -9.5202e-34 0)
(9.81147e-35 -8.19559e-35 0)
(8.33068e-36 -9.79511e-36 0)
(9.45306e-37 -7.19136e-37 0)
(7.24776e-38 -6.25227e-38 0)
(6.35199e-39 -4.1935e-39 0)
(4.40384e-40 -3.05235e-40 0)
(3.23866e-41 -1.88357e-41 0)
(2.04327e-42 -1.20014e-42 0)
(1.31833e-43 -6.26516e-44 0)
(8.11823e-45 -5.60617e-45 0)
(2.65332e-46 -4.03064e-45 0)
(-2.85897e-46 1.71258e-45 0)
(7.59414e-47 2.15325e-45 0)
(1.09441e-46 2.77044e-46 0)
(1.43211e-47 4.4876e-47 0)
(2.34792e-48 4.27617e-48 0)
(2.2601e-49 4.37759e-49 0)
(2.3271e-50 3.4442e-50 0)
(1.84261e-51 2.74593e-51 0)
(1.47387e-52 1.86841e-52 0)
(1.0749e-53 1.18085e-53 0)
(1.08556e-53 -1.18187e-53 0)
(1.49799e-52 -1.86727e-52 0)
(1.89352e-51 -2.73757e-51 0)
(2.4356e-50 -3.41426e-50 0)
(2.48497e-49 -4.29442e-49 0)
(2.81494e-48 -4.06825e-48 0)
(2.36323e-47 -4.01112e-47 0)
(2.9396e-46 -1.74738e-46 0)
(3.53389e-45 -5.18324e-47 0)
(6.39472e-44 3.873e-44 0)
(1.10755e-42 7.66161e-43 0)
(1.90497e-41 1.32465e-41 0)
(2.95643e-40 2.28868e-40 0)
(4.66768e-39 3.47074e-39 0)
(6.34406e-38 5.02435e-38 0)
(9.13947e-37 4.16638e-37 0)
(1.03522e-35 -4.43628e-36 0)
(1.34409e-34 -4.55923e-34 0)
(1.08572e-33 -1.59537e-32 0)
(1.15994e-32 -4.01817e-31 0)
(5.38682e-33 -6.76815e-30 0)
(-5.70642e-33 -4.03204e-31 0)
(9.65302e-32 -5.89672e-32 0)
(1.07348e-31 -3.68285e-33 0)
(7.33195e-33 -1.54387e-34 0)
(1.31414e-33 -4.88295e-36 0)
(9.96866e-35 -9.41585e-38 0)
(1.1168e-35 2.24469e-40 0)
(8.0971e-37 2.13696e-40 0)
(7.01636e-38 1.6209e-41 0)
(4.70627e-39 1.12213e-42 0)
(3.42811e-40 6.4403e-44 0)
(2.11664e-41 3.8715e-45 0)
(1.35226e-42 4.68259e-46 0)
(7.70838e-44 -6.66332e-47 0)
(4.41913e-45 -1.76059e-46 0)
(2.19383e-46 7.95515e-47 0)
(1.57903e-47 9.96206e-47 0)
(5.75385e-48 1.29647e-47 0)
(7.07573e-49 2.11643e-48 0)
(1.12617e-49 2.03449e-49 0)
(1.08095e-50 2.0929e-50 0)
(1.10826e-51 1.65642e-51 0)
(8.77639e-53 1.32423e-52 0)
(7.00264e-54 9.04272e-54 0)
(5.36904e-55 5.71971e-55 0)
(1.18139e-54 -5.76503e-55 0)
(2.33013e-53 -9.13415e-54 0)
(4.69967e-52 -1.34381e-52 0)
(9.85966e-51 -1.69747e-51 0)
(2.0337e-49 -2.18044e-50 0)
(4.25504e-48 -2.21567e-49 0)
(8.57064e-47 -2.4954e-48 0)
(1.71594e-45 -2.0541e-47 0)
(3.24757e-44 -2.51604e-46 0)
(6.07969e-43 -2.9393e-45 0)
(1.05573e-41 -5.37767e-44 0)
(1.82937e-40 -9.30237e-43 0)
(2.86006e-39 -1.61206e-41 0)
(4.56196e-38 -2.37351e-40 0)
(6.2627e-37 -3.1615e-39 0)
(9.15567e-36 -8.40916e-39 0)
(1.05284e-34 1.19472e-36 0)
(1.39981e-33 6.44798e-35 0)
(1.16514e-32 2.07634e-33 0)
(1.30822e-31 5.0078e-32 0)
(1.08356e-31 8.19599e-31 0)
(-1.51613e-32 5.00237e-32 0)
(5.54286e-33 -5.81739e-32 0)
(4.82538e-33 -2.80616e-33 0)
(4.69582e-34 7.80989e-34 0)
(8.8092e-35 7.63335e-35 0)
(7.6338e-36 9.66213e-36 0)
(8.80656e-37 7.17393e-37 0)
(6.82462e-38 6.26068e-38 0)
(6.03322e-39 4.20213e-39 0)
(4.20926e-40 3.05868e-40 0)
(3.11189e-41 1.88689e-41 0)
(1.97185e-42 1.20447e-42 0)
(1.2745e-43 6.86019e-44 0)
(7.39883e-45 3.93469e-45 0)
(4.28735e-46 1.9965e-46 0)
(2.23579e-47 1.46787e-47 0)
(1.36828e-48 5.25543e-48 0)
(2.83786e-49 6.43925e-49 0)
(3.26221e-50 1.02006e-49 0)
(5.01954e-51 9.77581e-51 0)