/*--------------------------------*- C++ -*----------------------------------*\
| =========                 |                                                 |
| \\      /  F ield         | OpenFOAM: The Open Source CFD Toolbox           |
|  \\    /   O peration     | Version:  2.4.0                                 |
|   \\  /    A nd           | Web:      www.OpenFOAM.org                      |
|    \\/     M anipulation  |                                                 |
\*---------------------------------------------------------------------------*/
FoamFile
{
    version     2.0;
    format      ascii;
    class       volVectorField;
    location    "0.05";
    object      U;
}
// * * * * * * * * * * * * * * * * * * * * * * * * * * * * * * * * * * * * * //

dimensions      [0 1 -1 0 0 0 0];

internalField   nonuniform List<vector> 
1935
(
(5.47514e-39 1.10401e-44 0)
(7.21337e-41 -7.13516e-41 0)
(6.26585e-42 -1.54353e-42 0)
(1.04754e-42 -4.48744e-41 0)
(3.29659e-41 -1.00278e-39 0)
(-1.63078e-38 -8.87731e-38 0)
(-3.90649e-36 -1.25842e-36 0)
(-7.1934e-34 -1.1858e-34 0)
(-9.08258e-32 -8.52048e-35 0)
(-7.16764e-34 -8.13139e-33 0)
(2.40643e-34 -5.53675e-32 0)
(-7.37471e-36 -7.03084e-30 0)
(-4.94298e-34 1.36972e-31 0)
(2.14162e-36 7.16905e-30 0)
(2.49378e-34 5.67625e-32 0)
(2.63254e-36 8.41352e-33 0)
(-2.21627e-38 1.78284e-34 0)
(-2.75662e-36 9.41608e-33 0)
(-2.79074e-34 5.41584e-32 0)
(2.98099e-34 8.0418e-30 0)
(8.56988e-34 -8.46556e-30 0)
(-2.91999e-34 -1.65736e-29 0)
(-8.75244e-34 -8.24897e-32 0)
(3.10884e-34 8.56046e-30 0)
(9.10152e-34 -9.00312e-30 0)
(-6.23377e-34 -1.76029e-29 0)
(-6.10823e-34 8.92836e-30 0)
(2.98936e-34 -8.41288e-32 0)
(-1.02571e-33 1.32891e-31 0)
(-1.29976e-31 -2.09828e-31 0)
(-1.03674e-33 -9.48724e-30 0)
(-3.35489e-34 -7.50945e-32 0)
(-3.50798e-36 -1.11202e-32 0)
(-2.47025e-37 -1.15274e-34 0)
(2.10324e-40 -1.72493e-35 0)
(2.75417e-37 -1.20335e-34 0)
(3.63742e-36 -1.24005e-32 0)
(3.67769e-34 -7.14663e-32 0)
(-3.89773e-34 -1.05974e-29 0)
(-1.12654e-33 1.10681e-29 0)
(3.77884e-34 2.17652e-29 0)
(7.57922e-34 1.84107e-31 0)
(7.74273e-36 2.58204e-32 0)
(1.21083e-37 -1.16823e-44 0)
(7.88731e-36 -1.18803e-44 0)
(1.09769e-34 -2.82064e-46 0)
(7.64862e-33 -5.16016e-46 0)
(1.66441e-39 -4.81574e-39 0)
(9.64893e-38 -1.0303e-37 0)
(1.40606e-36 -6.69831e-36 0)
(8.21894e-35 -9.15707e-35 0)
(1.35902e-40 -6.2968e-41 0)
(8.08428e-39 -1.4155e-39 0)
(9.6946e-38 -8.19076e-38 0)
(5.59878e-36 -1.16874e-36 0)
(2.80979e-42 4.06641e-41 0)
(9.89593e-41 -6.88153e-41 0)
(1.23328e-39 -6.87697e-39 0)
(6.31084e-38 -8.23426e-38 0)
(3.43812e-41 1.02235e-39 0)
(-5.02164e-41 1.03883e-39 0)
(-1.50767e-42 -6.37191e-41 0)
(2.83552e-39 -1.04814e-39 0)
(-1.62303e-38 9.05967e-38 0)
(-1.56264e-39 9.20042e-38 0)
(-1.2253e-39 1.64719e-39 0)
(8.22997e-42 8.879e-41 0)
(-3.89533e-36 1.25784e-36 0)
(-1.80751e-37 1.27889e-36 0)
(-1.0884e-37 2.37986e-38 0)
(-1.93663e-39 1.60602e-39 0)
(-7.18102e-34 1.18946e-34 0)
(-1.26809e-35 1.20591e-34 0)
(-1.60747e-36 1.8661e-36 0)
(-2.86148e-38 1.31231e-37 0)
(-9.07163e-32 -1.47143e-36 0)
(-1.12619e-33 -1.02408e-37 0)
(-1.49439e-34 -1.76416e-39 0)
(-2.23429e-36 -7.92656e-41 0)
(-6.22612e-34 -2.37647e-34 0)
(-1.09884e-35 -1.29023e-34 0)
(-1.48758e-36 -1.99483e-36 0)
(-2.65496e-38 -1.3726e-37 0)
(9.04238e-33 -8.4358e-34 0)
(1.32382e-34 -8.83729e-36 0)
(9.72458e-36 -7.30597e-38 0)
(1.48429e-37 -1.64325e-39 0)
(-2.72436e-34 -7.43317e-32 0)
(-4.29377e-36 -5.59756e-34 0)
(-3.13941e-37 -3.2629e-36 0)
(-5.04418e-39 -1.0258e-39 0)
(-1.82851e-32 1.4538e-33 0)
(-2.67989e-34 1.1122e-35 0)
(-1.98821e-35 6.65174e-38 0)
(-3.04063e-37 1.38793e-40 0)
(7.90102e-35 7.58041e-32 0)
(8.64065e-37 5.711e-34 0)
(6.97198e-38 3.3313e-36 0)
(8.336e-40 1.15266e-39 0)
(9.22489e-33 8.63267e-34 0)
(1.35192e-34 8.03706e-36 0)
(1.00283e-35 5.53001e-38 0)
(1.53357e-37 2.75493e-40 0)
(9.75987e-35 1.21066e-34 0)
(1.72958e-36 8.60007e-36 0)
(1.22593e-37 1.31304e-37 0)
(2.11147e-39 6.1487e-39 0)
(-8.32981e-37 3.08493e-36 0)
(-1.38131e-38 2.12782e-37 0)
(-1.20326e-39 3.67096e-39 0)
(-1.97593e-41 1.64455e-40 0)
(-1.02079e-34 1.35176e-34 0)
(-1.81627e-36 9.60263e-36 0)
(-1.26482e-37 1.46349e-37 0)
(-2.18569e-39 6.85706e-39 0)
(-1.0323e-32 8.31666e-34 0)
(-1.50909e-34 -1.26868e-36 0)
(-1.11993e-35 -9.59513e-38 0)
(-1.70964e-37 -7.11006e-39 0)
(1.10278e-32 8.46807e-32 0)
(1.62315e-34 6.27063e-34 0)
(1.20289e-35 3.55159e-36 0)
(1.84507e-37 -6.29599e-39 0)
(3.17016e-32 -8.98514e-32 0)
(4.64605e-34 -6.87352e-34 0)
(3.44673e-35 -4.11047e-36 0)
(5.27101e-37 -8.59159e-39 0)
(-1.08015e-32 -1.75541e-31 0)
(-1.58311e-34 -1.32368e-33 0)
(-1.17428e-35 -7.72539e-36 0)
(-1.79585e-37 -2.5406e-39 0)
(-3.23767e-32 -1.23844e-33 0)
(-4.74439e-34 -2.96349e-35 0)
(-3.51938e-35 -3.79131e-37 0)
(-5.38161e-37 -1.52125e-38 0)
(1.15e-32 9.00683e-32 0)
(1.68554e-34 6.49254e-34 0)
(1.25005e-35 3.48748e-36 0)
(1.91177e-37 -2.08491e-38 0)
(3.36678e-32 -9.55188e-32 0)
(4.93026e-34 -7.21336e-34 0)
(3.65814e-35 -4.21692e-36 0)
(5.59117e-37 -1.6626e-39 0)
(-2.30597e-32 -1.86152e-31 0)
(-3.376e-34 -1.41174e-33 0)
(-2.50537e-35 -8.33332e-36 0)
(-3.82863e-37 -1.03163e-38 0)
(-2.25949e-32 9.3751e-32 0)
(-3.31515e-34 7.02955e-34 0)
(-2.45876e-35 4.08434e-36 0)
(-3.76316e-37 1.22808e-39 0)
(1.12595e-32 -6.31304e-34 0)
(1.64115e-34 -2.04163e-35 0)
(1.20528e-35 -2.90365e-37 0)
(1.83359e-37 -1.29265e-38 0)
(-7.95176e-34 1.56491e-33 0)
(-1.40114e-35 1.82942e-34 0)
(-2.01449e-36 2.72893e-36 0)
(-3.60131e-38 1.87862e-37 0)
(-1.1778e-31 -2.56187e-33 0)
(-1.43444e-33 -2.14177e-35 0)
(-2.00951e-34 -1.37188e-37 0)
(-2.99987e-36 -4.77803e-40 0)
(-1.20338e-33 -1.00528e-31 0)
(-2.07253e-35 -9.38915e-34 0)
(-2.49424e-36 -7.24857e-36 0)
(-4.39249e-38 -1.97661e-37 0)
(-1.22087e-32 -1.14417e-33 0)
(-1.79115e-34 -1.25407e-35 0)
(-1.34253e-35 -1.08752e-37 0)
(-2.05713e-37 -2.73532e-39 0)
(-1.29214e-34 -1.60142e-34 0)
(-2.292e-36 -1.14984e-35 0)
(-1.64098e-37 -1.75905e-37 0)
(-2.83173e-39 -8.31919e-39 0)
(-9.2914e-36 -1.99218e-36 0)
(-1.56539e-37 -1.40166e-37 0)
(-1.3647e-38 -2.41911e-39 0)
(-2.2707e-40 -1.09741e-40 0)
(7.85555e-39 -2.82132e-37 0)
(1.53647e-40 -2.44848e-38 0)
(1.14602e-41 -4.07745e-40 0)
(2.12543e-43 -1.95884e-41 0)
(1.03567e-35 -2.08646e-36 0)
(1.74114e-37 -1.4264e-37 0)
(1.51058e-38 -2.46468e-39 0)
(2.5079e-40 -1.10088e-40 0)
(1.34699e-34 -1.78007e-34 0)
(2.39672e-36 -1.26432e-35 0)
(1.66957e-37 -1.92675e-37 0)
(2.88518e-39 -9.02739e-39 0)
(1.36038e-32 -1.09735e-33 0)
(1.98875e-34 1.56734e-36 0)
(1.47588e-35 1.24839e-37 0)
(2.25306e-37 9.29421e-39 0)
(-1.44192e-32 -1.11595e-31 0)
(-2.12235e-34 -8.26463e-34 0)
(-1.57284e-35 -4.68192e-36 0)
(-2.41255e-37 8.23032e-39 0)
(-4.16731e-32 1.17475e-31 0)
(-6.10766e-34 8.98805e-34 0)
(-4.53127e-35 5.37669e-36 0)
(-6.92979e-37 1.13491e-38 0)
(1.39784e-32 2.30575e-31 0)
(2.04422e-34 1.75063e-33 0)
(1.51746e-35 1.0343e-35 0)
(2.31715e-37 1.28891e-38 0)
(2.80372e-32 2.79011e-33 0)
(4.11352e-34 3.71341e-35 0)
(3.05073e-35 3.63523e-37 0)
(4.66898e-37 1.00236e-38 0)
(2.86874e-34 3.72643e-34 0)
(5.10025e-36 2.61208e-35 0)
(3.5936e-37 3.98517e-37 0)
(6.20807e-39 1.86127e-38 0)
(5.53768e-32 -3.09337e-44 0)
(5.51432e-30 -2.99585e-44 0)
(5.46645e-30 6.16799e-44 0)
(-5.46635e-30 6.13458e-44 0)
(-5.50709e-30 -3.06013e-44 0)
(8.76425e-35 -6.20976e-44 0)
(5.51433e-30 -3.11127e-44 0)
(5.52146e-30 3.0743e-44 0)
(5.5099e-32 3.11814e-44 0)
(7.2273e-33 4.36838e-46 0)
(8.7639e-35 3.51769e-47 0)
(5.9098e-36 4.79654e-49 0)
(-7.26412e-38 6.21734e-50 0)
(-1.17536e-35 8.07645e-49 0)
(-1.69365e-34 5.92472e-47 0)
(-1.4367e-32 4.24186e-46 0)
(-1.02976e-31 2.96228e-44 0)
(-1.09879e-29 -6.71918e-43 0)
(-5.51432e-30 5.70202e-42 0)
(5.46644e-30 1.85931e-38 0)
(5.5622e-30 3.91439e-36 0)
(5.5286e-30 6.41036e-34 0)
(6.24081e-32 7.30269e-32 0)
(6.24241e-32 6.41036e-34 0)
(5.52164e-30 3.93298e-36 0)
(5.52155e-30 3.91439e-36 0)
(5.50199e-32 6.37121e-34 0)
(7.31343e-33 7.23859e-32 0)
(1.73837e-34 -7.23859e-32 0)
(-6.72858e-35 -6.37121e-34 0)
(1.74431e-34 -3.87674e-36 0)
(1.44499e-32 3.99414e-36 0)
(1.10222e-31 6.5714e-34 0)
(1.1036e-29 7.48615e-32 0)
(1.10022e-29 6.61054e-34 0)
(-5.31567e-30 6.45048e-34 0)
(5.42579e-30 7.30269e-32 0)
(-5.48524e-32 6.37139e-34 0)
(-1.094e-29 -6.33332e-34 0)
(-1.08385e-31 -7.23862e-32 0)
(6.23745e-34 -6.57198e-33 0)
(4.36785e-32 -6.41963e-33 0)
(4.31351e-32 1.30796e-32 0)
(-4.31339e-32 1.30741e-32 0)
(-4.36009e-32 -6.50171e-33 0)
(1.12218e-36 -1.31504e-32 0)
(4.36786e-32 -6.58346e-33 0)
(4.3755e-32 6.49611e-33 0)
(6.2104e-34 6.57791e-33 0)
(7.75901e-35 8.18125e-35 0)
(1.12213e-36 5.61203e-36 0)
(7.21018e-38 7.22208e-38 0)
(-9.99308e-40 9.53004e-39 0)
(-1.43292e-37 1.41131e-37 0)
(-2.17212e-36 1.11519e-35 0)
(-1.54059e-34 1.58016e-34 0)
(-1.16456e-33 1.30741e-32 0)
(-8.689e-32 6.41983e-33 0)
(-4.36785e-32 -1.9587e-32 0)
(4.31349e-32 -1.32322e-32 0)
(4.42211e-32 -8.73074e-35 0)
(4.37456e-32 6.57491e-33 0)
(6.99681e-34 7.15955e-33 0)
(7.85726e-34 -6.48789e-33 0)
(4.37582e-32 -6.49597e-33 0)
(4.37553e-32 6.50191e-33 0)
(5.35184e-34 6.58608e-33 0)
(1.64545e-34 7.31511e-34 0)
(8.80775e-35 -6.4409e-34 0)
(-8.57154e-35 -8.16461e-36 0)
(1.22119e-36 -1.13211e-35 0)
(1.54004e-34 -1.59554e-34 0)
(1.15304e-33 -1.24934e-32 0)
(8.74366e-32 6.19288e-32 0)
(8.71312e-32 2.00863e-32 0)
(-4.15127e-32 6.67757e-33 0)
(4.26692e-32 -5.5276e-33 0)
(-5.31147e-34 1.94482e-32 0)
(-8.62605e-32 7.33874e-35 0)
(-1.38699e-33 -1.34133e-32 0)
(9.07617e-36 -6.97335e-35 0)
(2.34106e-34 -6.77833e-35 0)
(2.30552e-34 1.38637e-34 0)
(-2.30469e-34 1.3857e-34 0)
(-2.28791e-34 -6.88307e-35 0)
(7.63858e-38 -1.39546e-34 0)
(2.3411e-34 -6.98739e-35 0)
(2.39342e-34 6.87623e-35 0)
(8.8663e-36 6.98064e-35 0)
(5.31363e-36 1.04419e-36 0)
(7.63819e-38 6.84515e-38 0)
(6.05623e-39 9.91543e-40 0)
(-8.08351e-41 1.25085e-40 0)
(-1.20392e-38 1.93947e-39 0)
(-1.46704e-37 1.35913e-37 0)
(-1.0551e-35 2.01996e-36 0)
(-1.24249e-35 1.3857e-34 0)
(-4.69887e-34 6.77855e-35 0)
(-2.34104e-34 -2.07536e-34 0)
(2.30545e-34 -1.40591e-34 0)
(2.37655e-34 -1.0418e-36 0)
(2.43679e-34 7.069e-35 0)
(1.42503e-35 1.54716e-34 0)
(1.51684e-35 -6.77418e-35 0)
(2.39507e-34 -6.86904e-35 0)
(2.39412e-34 6.89026e-35 0)
(7.90981e-36 7.0757e-35 0)
(6.29019e-36 8.59101e-35 0)
(1.05297e-36 -8.47975e-35 0)
(-9.45414e-37 -9.5045e-37 0)
(6.38241e-38 -2.05668e-37 0)
(9.5726e-36 -1.96182e-36 0)
(-7.14574e-35 -1.31126e-34 0)
(4.73662e-34 5.37689e-34 0)
(5.69562e-34 2.14011e-34 0)
(-2.14484e-34 7.20661e-35 0)
(2.32378e-34 2.1098e-35 0)
(-7.74685e-36 2.06604e-34 0)
(-4.65616e-34 2.21694e-37 0)
(-2.85557e-35 -2.19296e-34 0)
(7.90274e-38 -5.01423e-36 0)
(9.53062e-37 -4.88207e-36 0)
(9.36211e-37 9.97623e-36 0)
(-9.35161e-37 9.97055e-36 0)
(-8.9311e-37 -4.95478e-36 0)
(9.71368e-40 -1.00373e-35 0)
(9.53113e-37 -5.02713e-36 0)
(1.012e-36 4.94903e-36 0)
(7.67604e-38 5.02145e-36 0)
(5.99278e-38 7.24236e-38 0)
(9.71318e-40 5.76012e-39 0)
(7.44476e-41 8.05056e-41 0)
(-1.08883e-42 1.08059e-41 0)
(-1.47904e-40 1.5725e-40 0)
(-1.86814e-39 1.14399e-38 0)
(-1.18885e-37 1.39091e-37 0)
(-9.36664e-38 9.97054e-36 0)
(-1.94813e-36 4.88228e-36 0)
(-9.53039e-37 -1.49368e-35 0)
(9.36058e-37 -1.01098e-35 0)
(9.69125e-37 -7.7269e-38 0)
(1.00561e-36 5.0233e-36 0)
(1.37586e-37 5.89731e-36 0)
(2.03146e-37 -4.93566e-36 0)
(1.01476e-36 -4.94808e-36 0)
(1.0123e-36 4.95578e-36 0)
(1.14205e-38 5.03398e-36 0)
(1.2624e-37 1.00167e-36 0)
(6.72842e-38 -9.23487e-37 0)
(-6.52069e-38 -1.24861e-38 0)
(1.31547e-40 -1.15188e-38 0)
(1.05554e-37 -7.20938e-38 0)
(-8.48149e-37 -8.99139e-36 0)
(1.96772e-36 7.81955e-35 0)
(3.06711e-36 1.58447e-35 0)
(-8.7764e-37 5.1857e-36 0)
(9.8022e-37 -3.73293e-36 0)
(-8.02649e-39 1.48218e-35 0)
(-1.86872e-36 6.64014e-38 0)
(-3.90794e-37 -1.06357e-35 0)
(2.79381e-39 -5.67193e-38 0)
(-3.75031e-39 -5.50327e-38 0)
(-3.7478e-39 1.12768e-37 0)
(3.79325e-39 1.12699e-37 0)
(6.44561e-39 -5.59584e-38 0)
(4.18566e-41 -1.13551e-37 0)
(-3.74823e-39 -5.68797e-38 0)
(-1.09949e-39 5.58877e-38 0)
(2.6903e-39 5.68099e-38 0)
(2.69391e-39 9.22285e-40 0)
(4.18543e-41 7.08201e-41 0)
(3.40808e-42 1.08253e-42 0)
(-4.77635e-44 1.39638e-43 0)
(-6.77273e-42 2.1163e-42 0)
(-8.02984e-41 1.4056e-40 0)
(-5.34602e-39 1.7738e-39 0)
(-2.69004e-39 1.12699e-37 0)
(4.85092e-39 5.50351e-38 0)
(3.75163e-39 -1.68798e-37 0)
(-3.75231e-39 -1.14474e-37 0)
(-3.76025e-39 -9.20856e-40 0)
(8.2048e-40 5.75197e-38 0)
(5.4227e-39 1.19049e-37 0)
(6.16492e-39 -5.50362e-38 0)
(-1.00496e-39 -5.58143e-38 0)
(-1.0641e-39 5.60319e-38 0)
(1.93159e-39 5.75901e-38 0)
(3.46792e-39 6.31628e-38 0)
(8.15855e-40 -6.21697e-38 0)
(-7.53002e-40 -7.79522e-40 0)
(-5.13162e-42 -1.99683e-40 0)
(4.46663e-39 -8.99431e-40 0)
(-6.26247e-38 -9.98485e-38 0)
(-4.7334e-39 8.55156e-37 0)
(6.84604e-38 1.80802e-37 0)
(6.58768e-39 5.95996e-38 0)
(-9.78301e-40 1.06956e-38 0)
(-1.83571e-39 1.67948e-37 0)
(5.46952e-39 3.41585e-40 0)
(-1.19668e-38 -1.71436e-37 0)
(2.97746e-41 -2.55431e-39 0)
(-7.9087e-41 -2.48421e-39 0)
(-7.83219e-41 5.08505e-39 0)
(7.88942e-41 5.08185e-39 0)
(1.1028e-40 -2.52425e-39 0)
(5.29814e-43 -5.11845e-39 0)
(-7.90335e-41 -2.56399e-39 0)
(-4.83995e-41 2.52101e-39 0)
(3.04525e-41 2.5608e-39 0)
(3.12041e-41 3.97888e-41 0)
(5.29785e-43 3.24261e-42 0)
(4.14912e-44 4.75148e-44 0)
(-6.25271e-46 6.1904e-45 0)
(-8.24115e-44 9.28723e-44 0)
(-1.01805e-42 6.43779e-42 0)
(-6.18791e-41 7.6337e-41 0)
(-2.97418e-41 5.08185e-39 0)
(1.26764e-40 2.48441e-39 0)
(7.90745e-41 -7.61254e-39 0)
(-7.84065e-41 -5.15827e-39 0)
(-8.02347e-41 -4.21179e-41 0)
(-5.09872e-41 2.5655e-39 0)
(6.21455e-41 3.26017e-39 0)
(9.55304e-41 -2.50982e-39 0)
(-4.68917e-41 -2.52007e-39 0)
(-4.82335e-41 2.52522e-39 0)
(-2.80618e-42 2.57112e-39 0)
(6.49968e-41 7.64574e-40 0)
(3.43224e-41 -7.21544e-40 0)
(-3.31915e-41 -1.02726e-41 0)
(-3.78022e-43 -6.38154e-42 0)
(5.02648e-41 -5.39054e-42 0)
(-7.32852e-40 -4.24579e-39 0)
(-1.26012e-40 5.96617e-38 0)
(7.28016e-40 8.40992e-39 0)
(8.57078e-41 2.68918e-39 0)
(-4.54185e-41 -1.63451e-39 0)
(4.65023e-42 7.5531e-39 0)
(1.57762e-40 3.50483e-41 0)
(-1.85975e-40 -5.66495e-39 0)
(-1.47405e-40 -3.8209e-42 0)
(-5.15168e-42 -2.76674e-41 0)
(-3.02779e-42 5.88906e-41 0)
(2.95055e-42 5.8837e-41 0)
(3.97101e-42 -2.92056e-41 0)
(1.63677e-44 -5.93014e-41 0)
(-2.96358e-42 -2.97087e-41 0)
(-1.97506e-42 2.91661e-41 0)
(9.75484e-43 2.96698e-41 0)
(1.00615e-42 5.03707e-43 0)
(1.63674e-44 3.94797e-44 0)
(1.29405e-45 6.2095e-46 0)
(-1.87377e-47 7.77514e-47 0)
(-2.57097e-45 1.21473e-45 0)
(-3.144e-44 7.83396e-44 0)
(-1.99594e-42 9.6796e-43 0)
(-9.46096e-43 5.88365e-41 0)
(4.91058e-42 2.87013e-41 0)
(2.96487e-42 -8.81205e-41 0)
(-2.936e-42 -5.98052e-41 0)
(-2.99931e-42 -5.02543e-43 0)
(-1.36789e-42 3.00572e-41 0)
(1.99672e-42 6.13365e-41 0)
(2.38317e-42 -2.86998e-41 0)
(-1.93651e-42 -2.91248e-41 0)
(-1.9627e-42 2.92469e-41 0)
(5.84175e-43 3.00961e-41 0)
(1.40514e-42 3.2169e-41 0)
(4.15352e-43 -3.16258e-41 0)
(-3.8937e-43 -4.25614e-43 0)
(-1.69748e-44 -1.05099e-43 0)
(1.50781e-42 -6.67085e-44 0)
(-3.27011e-41 -4.7832e-41 0)
(-4.89398e-42 6.96478e-40 0)
(3.17199e-41 9.86644e-41 0)
(3.95727e-42 3.16201e-41 0)
(-1.85557e-42 4.8766e-42 0)
(-5.43373e-43 8.76596e-41 0)
(5.22007e-42 2.02799e-43 0)
(-4.63628e-42 -8.86428e-41 0)
(-1.77159e-39 1.87735e-39 0)
(-2.71436e-41 7.75147e-41 0)
(-1.12146e-42 2.95533e-42 0)
(1.8351e-44 1.9308e-42 0)
(4.55973e-44 -9.42031e-43 0)
(1.95535e-46 -1.91238e-42 0)
(-3.44748e-44 -9.58004e-43 0)
(-2.31073e-44 9.41229e-43 0)
(1.11971e-44 9.56791e-43 0)
(1.15844e-44 1.5563e-44 0)
(2.02206e-46 1.2313e-45 0)
(1.53371e-47 1.85945e-47 0)
(-2.3552e-49 2.29009e-48 0)
(-3.04579e-47 3.63903e-47 0)
(-3.89066e-46 2.44403e-45 0)
(-2.29668e-44 2.98955e-44 0)
(-1.08248e-44 1.89804e-42 0)
(5.72253e-44 9.26878e-43 0)
(3.44898e-44 -2.84294e-42 0)
(-3.41338e-44 -1.92796e-42 0)
(-3.50391e-44 -1.62916e-44 0)
(-2.41387e-44 9.60359e-43 0)
(2.29685e-44 1.32183e-42 0)
(3.54274e-44 -9.35198e-43 0)
(-2.25267e-44 -9.40715e-43 0)
(-2.30498e-44 9.42982e-43 0)
(-1.2106e-45 9.62336e-43 0)
(2.42004e-44 3.88924e-43 0)
(1.28181e-44 -3.7213e-43 0)
(-1.23857e-44 -5.51756e-45 0)
(-3.15556e-46 -2.3646e-45 0)
(1.66374e-44 1.05999e-44 0)
(-3.86744e-43 -1.4344e-42 0)
(-5.70379e-44 3.1067e-41 0)
(3.74546e-43 3.29159e-42 0)
(3.84711e-44 1.02133e-42 0)
(-2.16017e-44 -5.02652e-43 0)
(1.9267e-45 2.8211e-42 0)
(6.8691e-44 1.26438e-44 0)
(-6.90368e-44 -2.2168e-42 0)
(-1.4486e-37 -1.23484e-42 0)
(-1.9746e-39 -4.69982e-44 0)
(-8.2617e-41 2.13444e-44 0)
(-1.11163e-42 2.18294e-44 0)
(-3.33854e-44 -1.08392e-44 0)
(-4.46255e-46 -2.20193e-44 0)
(-8.61208e-46 -1.10311e-44 0)
(-5.70679e-46 1.08244e-44 0)
(2.75652e-46 1.10167e-44 0)
(2.84865e-46 1.92275e-46 0)
(4.78102e-48 1.45939e-47 0)
(3.56719e-49 2.33329e-49 0)
(-5.28655e-51 2.75964e-50 0)
(-7.08569e-49 4.57013e-49 0)
(-9.20512e-48 2.89549e-47 0)
(-5.64953e-46 3.69966e-46 0)
(-2.66796e-46 2.18413e-44 0)
(1.41232e-45 1.06465e-44 0)
(8.50633e-46 -3.27093e-44 0)
(-8.41967e-46 -2.22116e-44 0)
(-8.61548e-46 -1.91446e-46 0)
(-4.32648e-46 1.11703e-44 0)
(5.64948e-46 2.28358e-44 0)
(7.08195e-46 -1.06416e-44 0)
(-5.58761e-46 -1.08088e-44 0)
(-5.6743e-46 1.08547e-44 0)
(1.31459e-46 1.11843e-44 0)
(4.31841e-46 1.20065e-44 0)
(1.51753e-46 -1.17996e-44 0)
(-1.43734e-46 -1.67274e-46 0)
(-9.31023e-48 -3.64913e-47 0)
(3.72109e-46 1.32374e-46 0)
(-1.23847e-44 -1.58383e-44 0)
(-1.40775e-45 3.67407e-43 0)
(1.20829e-44 3.85365e-44 0)
(1.1502e-45 1.19233e-44 0)
(-5.31217e-46 1.90612e-45 0)
(-1.18399e-46 3.2537e-44 0)
(1.53301e-45 7.40546e-47 0)
(-1.37893e-45 -3.29607e-44 0)
(-1.68468e-39 -1.96358e-39 0)
(-2.58251e-41 -8.10761e-41 0)
(-1.04912e-42 -1.09008e-42 0)
(-1.54215e-44 -3.30654e-44 0)
(-4.51968e-46 -7.0529e-46 0)
(-6.4576e-48 -5.52052e-46 0)
(-9.69214e-48 -2.71368e-46 0)
(-6.40545e-48 2.66353e-46 0)
(3.08621e-48 2.70901e-46 0)
(3.19592e-48 4.54618e-48 0)
(5.68085e-50 3.39411e-49 0)
(4.05744e-51 5.22993e-51 0)
(-6.30507e-53 5.98254e-52 0)
(-8.05661e-51 1.02511e-50 0)
(-1.09557e-49 6.736e-49 0)
(-6.33509e-48 8.75315e-48 0)
(-2.98057e-48 5.37262e-46 0)
(1.58404e-47 2.62143e-46 0)
(9.54258e-48 -8.0463e-46 0)
(-9.44138e-48 -5.46023e-46 0)
(-9.70066e-48 -4.70106e-48 0)
(-6.77644e-48 2.72515e-46 0)
(6.33497e-48 4.06458e-46 0)
(9.8591e-48 -2.64063e-46 0)
(-6.2378e-48 -2.66167e-46 0)
(-6.39006e-48 2.66885e-46 0)
(-4.22097e-49 2.73014e-46 0)
(6.76493e-48 1.42023e-46 0)
(3.62576e-48 -1.37138e-46 0)
(-3.50346e-48 -2.10237e-48 0)
(-1.37788e-49 -6.27904e-49 0)
(3.91284e-48 6.73943e-48 0)
(-1.44531e-46 -3.54068e-46 0)
(-1.57883e-47 1.17689e-44 0)
(1.41101e-46 9.83484e-46 0)
(1.12178e-47 2.93909e-46 0)
(-5.93165e-48 -1.09179e-46 0)
(6.29515e-49 7.98687e-46 0)
(1.90888e-47 3.27596e-48 0)
(-1.92249e-47 -6.58953e-46 0)
(6.47167e-39 -2.29484e-41 0)
(8.7296e-41 -9.12342e-43 0)
(2.67762e-42 -1.3465e-44 0)
(3.5032e-44 -4.06748e-46 0)
(8.39232e-46 -8.80748e-48 0)
(1.05046e-47 -6.21366e-48 0)
(1.70231e-50 -3.04499e-48 0)
(-1.22511e-49 2.98529e-48 0)
(6.03175e-50 3.03934e-48 0)
(6.2349e-50 5.40188e-50 0)
(1.07069e-51 3.86064e-51 0)
(7.39628e-53 6.22736e-53 0)
(-1.11461e-54 6.83045e-54 0)
(-1.46892e-52 1.2216e-52 0)
(-2.06737e-51 7.6591e-51 0)
(-1.23628e-49 1.04179e-49 0)
(-5.82823e-50 6.02473e-48 0)
(3.09119e-49 2.9351e-48 0)
(1.86197e-49 -9.02157e-48 0)
(-1.84251e-49 -6.12897e-48 0)
(-1.88797e-49 -5.36307e-50 0)
(-1.02899e-49 3.08526e-48 0)
(1.23625e-49 6.38313e-48 0)
(1.63104e-49 -2.93169e-48 0)
(-1.22149e-49 -2.98101e-48 0)
(-1.24348e-49 2.9935e-48 0)
(2.07018e-50 3.08879e-48 0)
(1.0268e-49 3.39439e-48 0)
(4.14007e-50 -3.33651e-48 0)
(-3.95001e-50 -4.93258e-50 0)
(-3.07235e-51 -8.9542e-51 0)
(6.6755e-50 8.1535e-50 0)
(-3.53882e-48 -3.72554e-48 0)
(-3.08103e-49 1.37348e-46 0)
(3.47243e-48 1.12712e-47 0)
(2.58053e-49 3.34044e-48 0)
(-1.1522e-49 6.16205e-49 0)
(-1.74859e-50 8.97484e-48 0)
(3.43564e-49 1.82711e-50 0)
(-3.17847e-49 -9.17312e-48 0)
(-2.18746e-40 1.82222e-40 0)
(-3.07314e-42 7.63583e-42 0)
(-9.39141e-44 1.02466e-43 0)
(-1.27138e-45 2.4842e-45 0)
(-3.03906e-47 3.11233e-47 0)
(-3.91921e-49 4.88396e-49 0)
(-9.58485e-51 -5.21542e-50 0)
(-1.43708e-51 5.83892e-50 0)
(6.46394e-52 5.92927e-50 0)
(6.71244e-52 1.01809e-51 0)
(1.20815e-53 7.03688e-53 0)
(7.96876e-55 1.0989e-54 0)
(-1.24665e-56 1.15154e-55 0)
(-1.58215e-54 2.15761e-54 0)
(-2.33662e-53 1.3964e-52 0)
(-1.33045e-51 1.96581e-51 0)
(-6.25264e-52 1.17566e-49 0)
(3.32642e-51 5.73245e-50 0)
(2.00409e-51 -1.76049e-49 0)
(-1.98242e-51 -1.19533e-49 0)
(-2.03861e-51 -1.03984e-51 0)
(-1.45406e-51 5.97946e-50 0)
(1.33043e-51 9.66971e-50 0)
(2.10111e-51 -5.76294e-50 0)
(-1.30895e-51 -5.82239e-50 0)
(-1.34288e-51 5.83934e-50 0)
(-1.19021e-52 5.98878e-50 0)
(1.45169e-51 3.87287e-50 0)
(7.92491e-52 -3.76402e-50 0)
(-7.66151e-52 -5.93783e-52 0)
(-4.01079e-53 -1.22989e-52 0)
(6.46688e-52 2.32427e-51 0)
(-4.00568e-50 -6.35323e-50 0)
(-3.3153e-51 3.36346e-48 0)
(3.93349e-50 2.29117e-49 0)
(2.49873e-51 6.5384e-50 0)
(-1.23425e-51 -1.59904e-50 0)
(1.64946e-52 1.74825e-49 0)
(4.03906e-51 6.19313e-52 0)
(-4.09976e-51 -1.51768e-49 0)
(-1.3387e-38 -1.90629e-42 0)
(-1.80965e-40 -9.90511e-44 0)
(-5.60421e-42 -1.34933e-45 0)
(-7.35077e-44 -3.29852e-47 0)
(-1.77708e-45 -4.16171e-49 0)
(-2.23161e-47 -9.40706e-51 0)
(-4.35626e-49 -7.36001e-52 0)
(-5.19971e-51 6.25299e-52 0)
(-7.31979e-53 6.38336e-52 0)
(9.73934e-54 1.14878e-53 0)
(1.73931e-55 7.5815e-55 0)
(1.16171e-56 1.22711e-56 0)
(-1.80569e-58 1.22994e-57 0)
(-2.33264e-56 2.41124e-56 0)
(-3.61283e-55 1.50405e-54 0)
(-2.11518e-53 2.22183e-53 0)
(-9.95735e-54 1.26523e-51 0)
(5.28795e-53 6.16123e-52 0)
(3.1856e-53 -1.89436e-51 0)
(-3.15159e-53 -1.28746e-51 0)
(-3.23388e-53 -1.13659e-53 0)
(-1.91421e-53 6.48912e-52 0)
(2.11514e-53 1.36976e-51 0)
(2.94376e-53 -6.1479e-52 0)
(-2.08657e-53 -6.2597e-52 0)
(-2.12994e-53 6.28516e-52 0)
(2.02598e-54 6.4956e-52 0)
(1.91072e-53 7.41561e-52 0)
(8.62427e-54 -7.29315e-52 0)
(-8.27281e-54 -1.11765e-53 0)
(-7.11673e-55 -1.59652e-54 0)
(8.29981e-54 2.69181e-53 0)
(-7.79545e-52 -6.15884e-52 0)
(-5.27035e-53 3.80728e-50 0)
(7.68148e-52 2.53314e-51 0)
(4.57048e-53 7.12571e-52 0)
(-1.95272e-53 1.59761e-52 0)
(-1.40885e-54 1.88492e-51 0)
(6.02909e-53 3.08773e-54 0)
(-5.74142e-53 -1.95503e-51 0)
(4.06998e-41 -1.84535e-40 0)
(4.40838e-43 -7.77251e-42 0)
(1.51815e-44 -1.04391e-43 0)
(1.62615e-46 -2.53849e-45 0)
(4.35785e-48 -3.18958e-47 0)
(4.54681e-50 -6.22667e-49 0)
(9.75728e-52 -7.4122e-51 0)
(9.59062e-54 -1.09396e-52 0)
(2.7678e-55 8.81646e-54 0)
(1.10389e-55 1.59352e-55 0)
(1.99862e-57 1.09893e-56 0)
(1.18551e-58 1.73792e-58 0)
(-1.85287e-60 1.6664e-59 0)
(-2.3493e-58 3.46027e-58 0)
(-3.83115e-57 2.2174e-56 0)
(-2.15511e-55 3.43518e-55 0)
(-1.01189e-55 2.01137e-53 0)
(5.38731e-55 9.80173e-54 0)
(3.24607e-55 -3.01151e-53 0)
(-3.21036e-55 -2.04574e-53 0)
(-3.30434e-55 -1.79005e-55 0)
(-2.42504e-55 1.02603e-53 0)
(2.15508e-55 1.80033e-53 0)
(3.47291e-55 -9.83081e-54 0)
(-2.11809e-55 -9.9584e-54 0)
(-2.17677e-55 9.98895e-54 0)
(-2.61538e-56 1.02734e-53 0)
(2.42153e-55 8.06431e-54 0)
(1.35382e-55 -7.87579e-54 0)
(-1.30992e-55 -1.27427e-55 0)
(-8.40174e-57 -1.78963e-56 0)
(6.92412e-56 5.48546e-55 0)
(-8.44157e-54 -7.90216e-54 0)
(-5.36909e-55 7.40989e-52 0)
(8.32443e-54 4.21595e-53 0)
(4.33061e-55 1.13744e-53 0)
(-1.98017e-55 -1.25394e-54 0)
(3.40346e-56 2.99228e-53 0)
(6.61104e-55 8.44163e-56 0)
(-6.78078e-55 -2.73931e-53 0)
(6.75157e-39 4.72033e-43 0)
(9.12651e-41 -1.83426e-44 0)
(2.8264e-42 -3.54974e-46 0)
(3.70721e-44 -8.04673e-48 0)
(8.96276e-46 -1.1915e-49 0)
(1.12553e-47 -2.15776e-51 0)
(2.19707e-49 -2.91949e-53 0)
(2.61192e-51 -3.41356e-55 0)
(4.21236e-53 9.79625e-56 0)
(4.70424e-55 1.80692e-57 0)
(6.3751e-57 1.11783e-58 0)
(6.69197e-59 1.81113e-60 0)
(7.30457e-61 1.64388e-61 0)
(-2.85322e-60 3.58243e-60 0)
(-4.94531e-59 2.23323e-58 0)
(-2.84342e-57 3.64271e-57 0)
(-1.33685e-57 2.04933e-55 0)
(7.10727e-57 9.97602e-56 0)
(4.28215e-57 -3.06796e-55 0)
(-4.23556e-57 -2.08578e-55 0)
(-4.35249e-57 -1.8505e-57 0)
(-2.80155e-57 1.05295e-55 0)
(2.84338e-57 2.28499e-55 0)
(4.18501e-57 -9.94116e-56 0)
(-2.80003e-57 -1.01385e-55 0)
(-2.867e-57 1.01781e-55 0)
(4.72729e-59 1.05382e-55 0)
(2.79727e-57 1.26623e-55 0)
(1.38824e-57 -1.24633e-55 0)
(-1.33715e-57 -1.9721e-57 0)
(-1.22099e-58 -2.07656e-58 0)
(5.85392e-58 6.00831e-57 0)
(-1.3401e-55 -6.59839e-56 0)
(-7.08337e-57 8.0242e-54 0)
(1.32472e-55 4.44015e-55 0)
(6.44214e-57 1.17274e-55 0)
(-2.5994e-57 3.26634e-56 0)
(4.56001e-59 3.05367e-55 0)
(8.3297e-57 3.3472e-58 0)
(-8.16903e-57 -3.23168e-55 0)
(8.88915e-41 8.69806e-41 0)
(1.31283e-42 2.68699e-42 0)
(3.91015e-44 3.5236e-44 0)
(5.5001e-46 8.51787e-46 0)
(1.28633e-47 1.06964e-47 0)
(1.70951e-49 2.08788e-49 0)
(3.2469e-51 2.48207e-51 0)
(4.04256e-53 4.0028e-53 0)
(6.38004e-55 4.47016e-55 0)
(7.38837e-57 6.05771e-57 0)
(9.85097e-59 6.35884e-59 0)
(1.05745e-60 7.36713e-61 0)
(1.16631e-62 8.5831e-63 0)
(-2.64572e-62 4.27102e-62 0)
(-4.85997e-61 2.71888e-60 0)
(-2.70647e-59 4.70181e-59 0)
(-1.26974e-59 2.70368e-57 0)
(6.7643e-59 1.31689e-57 0)
(4.07617e-59 -4.04751e-57 0)
(-4.03065e-59 -2.75072e-57 0)
(-4.15271e-59 -2.41548e-59 0)
(-3.16139e-59 1.38371e-57 0)
(2.70642e-59 2.63702e-57 0)
(4.47708e-59 -1.31721e-57 0)
(-2.65672e-59 -1.3383e-57 0)
(-2.73605e-59 1.34254e-57 0)
(-4.42694e-60 1.38506e-57 0)
(3.15741e-59 1.29761e-57 0)
(1.81662e-59 -1.27204e-57 0)
(-1.75955e-59 -2.10593e-59 0)
(-1.30941e-60 -1.90967e-60 0)
(3.00424e-60 9.49194e-59 0)
(-1.37092e-57 -5.58042e-58 0)
(-6.7412e-59 1.27387e-55 0)
(1.35618e-57 6.17045e-57 0)
(5.88893e-59 1.55532e-57 0)
(-2.46197e-59 5.11061e-59 0)
(5.48174e-60 4.02449e-57 0)
(8.41666e-59 7.80538e-60 0)
(-8.74693e-59 -3.89458e-57 0)
(-8.93543e-43 2.54405e-42 0)
(-1.25037e-44 7.55245e-44 0)
(-3.78789e-46 1.06443e-45 0)
(-5.04467e-48 2.4911e-47 0)
(-1.16613e-49 3.31778e-49 0)
(-1.46669e-51 6.31087e-51 0)
(-2.70207e-53 7.87381e-53 0)
(-3.18061e-55 1.24498e-54 0)
(-4.80032e-57 1.4433e-56 0)
(-5.21995e-59 1.92766e-58 0)
(-6.56671e-61 2.06243e-60 0)
(-6.45019e-63 2.35623e-62 0)
(-7.2201e-65 2.42487e-64 0)
(-2.71631e-64 4.05849e-64 0)
(-5.30518e-63 2.52576e-62 0)
(-3.00188e-61 4.62057e-61 0)
(-1.40969e-61 2.57342e-59 0)
(7.50193e-61 1.25234e-59 0)
(4.52049e-61 -3.85205e-59 0)
(-4.47042e-61 -2.61964e-59 0)
(-4.60098e-61 -2.33007e-61 0)
(-3.22611e-61 1.32505e-59 0)
(3.00184e-61 2.97971e-59 0)
(4.68616e-61 -1.2458e-59 0)
(-2.95029e-61 -1.27309e-59 0)
(-3.03132e-61 1.27784e-59 0)
(-2.14562e-62 1.32591e-59 0)
(3.22206e-61 1.69834e-59 0)
(1.73467e-61 -1.67333e-59 0)
(-1.6762e-61 -2.72646e-61 0)
(-1.5873e-62 -1.92973e-62 0)
(-1.03614e-62 9.7115e-61 0)
(-1.80768e-59 -2.87373e-60 0)
(-7.47646e-61 1.30318e-57 0)
(1.79139e-59 6.11614e-59 0)
(7.25035e-61 1.49721e-59 0)
(-2.71615e-61 5.22256e-60 0)
(3.24244e-62 3.83586e-59 0)
(9.05875e-61 1.54462e-62 0)
(-9.15447e-61 -4.16641e-59 0)
(-9.14285e-41 9.68698e-41 0)
(-1.3561e-42 2.99438e-42 0)
(-4.03463e-44 3.92235e-44 0)
(-5.70017e-46 9.48742e-46 0)
(-1.3352e-47 1.19031e-47 0)
(-1.78207e-49 2.32465e-49 0)
(-3.39481e-51 2.7615e-51 0)
(-4.24414e-53 4.45528e-53 0)
(-6.72303e-55 4.95749e-55 0)
(-7.80205e-57 6.71416e-57 0)
(-1.04377e-58 6.92047e-59 0)
(-1.11328e-60 7.9558e-61 0)
(-1.27121e-62 7.50414e-63 0)
(-1.25518e-64 7.77814e-65 0)
(-4.88923e-65 2.58211e-64 0)
(-2.63202e-63 5.04354e-63 0)
(-1.2339e-63 2.85413e-61 0)
(6.57696e-63 1.38953e-61 0)
(3.96365e-63 -4.27212e-61 0)
(-3.91878e-63 -2.90458e-61 0)
(-4.04194e-63 -2.55735e-63 0)
(-3.2212e-63 1.46599e-61 0)
(2.63197e-63 3.03896e-61 0)
(4.50051e-63 -1.38552e-61 0)
(-2.57986e-63 -1.4125e-61 0)
(-2.66372e-63 1.41703e-61 0)
(-5.75037e-64 1.46702e-61 0)
(3.21778e-63 1.62082e-61 0)
(1.91393e-63 -1.59366e-61 0)
(-1.85599e-63 -2.69513e-63 0)
(-1.54036e-64 -1.42675e-64 0)
(-4.30279e-64 1.23827e-62 0)
(-1.72498e-61 9.69239e-63 0)
(-6.5543e-63 1.71835e-59 0)
(1.71062e-61 7.19898e-61 0)
(6.29996e-63 1.67132e-61 0)
(-2.36893e-63 3.11766e-62 0)
(6.85192e-64 4.25145e-61 0)
(8.33016e-63 3.77274e-64 0)
(-8.79811e-63 -4.36112e-61 0)
(-7.5314e-39 -1.04581e-40 0)
(-1.01668e-40 -3.26627e-42 0)
(-3.15054e-42 -4.3003e-44 0)
(-4.12781e-44 -1.03847e-45 0)
(-9.98542e-46 -1.30716e-47 0)
(-1.25281e-47 -2.54862e-49 0)
(-2.4468e-49 -3.03574e-51 0)
(-2.90664e-51 -4.89106e-53 0)
(-4.68954e-53 -5.45446e-55 0)
(-5.2182e-55 -7.37951e-57 0)
(-7.06736e-57 -7.61984e-59 0)
(-7.28456e-59 -8.75342e-61 0)
(-8.37443e-61 -8.26788e-63 0)
(-7.89893e-63 -8.11796e-65 0)
(-7.80668e-65 1.48238e-66 0)
(-2.54093e-65 4.53245e-65 0)
(-1.16147e-65 2.5024e-63 0)
(6.18366e-65 1.21745e-63 0)
(3.72657e-65 -3.74525e-63 0)
(-3.68459e-65 -2.54774e-63 0)
(-3.7986e-65 -2.26887e-65 0)
(-2.90906e-65 1.29182e-63 0)
(2.47482e-65 3.03721e-63 0)
(4.11239e-65 -1.20837e-63 0)
(-2.42697e-65 -1.23794e-63 0)
(-2.50351e-65 1.24232e-63 0)
(-4.2238e-66 1.29241e-63 0)
(2.9061e-65 1.78855e-63 0)
(1.67998e-65 -1.76424e-63 0)
(-1.62751e-65 -2.95399e-65 0)
(-1.57617e-66 -1.19446e-66 0)
(-8.7064e-66 1.16781e-64 0)
(-1.91312e-63 4.07471e-64 0)
(-6.16246e-65 1.63974e-61 0)
(1.89964e-63 6.6336e-63 0)
(6.51014e-65 1.48154e-63 0)
(-2.21473e-65 6.49136e-64 0)
(5.23598e-66 3.73185e-63 0)
(7.71471e-65 -1.74357e-66 0)
(-8.03962e-65 -4.1884e-63 0)
(8.11386e-39 -3.1256e-40 0)
(1.0994e-40 -1.19612e-41 0)
(3.40107e-42 -1.5955e-43 0)
(4.46958e-44 -3.8741e-45 0)
(1.07954e-45 -4.86588e-47 0)
(1.35782e-47 -9.49979e-49 0)
(2.6483e-49 -1.12913e-50 0)
(3.1525e-51 -1.82103e-52 0)
(5.08047e-53 -2.02718e-54 0)
(5.66271e-55 -2.74469e-56 0)
(7.66261e-57 -2.82998e-58 0)
(7.90869e-59 -3.25261e-60 0)
(9.08615e-61 -3.06867e-62 0)
(8.57908e-63 -3.0151e-64 0)
(8.427e-65 -2.54865e-66 0)
(5.21224e-67 4.00244e-67 0)
(-8.61495e-68 2.35282e-65 0)
(4.91741e-67 1.14499e-65 0)
(2.96351e-67 -3.52128e-65 0)
(-2.92952e-67 -2.39503e-65 0)
(-3.02554e-67 -2.11427e-67 0)
(-2.55153e-67 1.21341e-65 0)
(1.96805e-67 2.74227e-65 0)
(3.50799e-67 -1.13752e-65 0)
(-1.92564e-67 -1.16424e-65 0)
(-1.99461e-67 1.16795e-65 0)
(-5.70548e-68 1.21395e-65 0)
(2.54931e-67 1.56917e-65 0)
(1.57441e-67 -1.54666e-65 0)
(-1.52864e-67 -2.66868e-67 0)
(-1.37225e-68 -6.42539e-69 0)
(-1.04632e-67 1.23038e-66 0)
(-1.67997e-65 8.26348e-66 0)
(-4.89987e-67 1.81855e-63 0)
(1.6692e-65 6.68032e-65 0)
(5.29053e-67 1.40399e-65 0)
(-1.75102e-67 4.96121e-66 0)
(6.59851e-68 3.50785e-65 0)
(6.37022e-67 -1.25535e-68 0)