/*--------------------------------*- C++ -*----------------------------------*\
| =========                 |                                                 |
| \\      /  F ield         | OpenFOAM: The Open Source CFD Toolbox           |
|  \\    /   O peration     | Version:  2.4.0                                 |
|   \\  /    A nd           | Web:      www.OpenFOAM.org                      |
|    \\/     M anipulation  |                                                 |
\*---------------------------------------------------------------------------*/
FoamFile
{
    version     2.0;
    format      ascii;
    class       surfaceScalarField;
    location    "0.6";
    object      phi;
}
// * * * * * * * * * * * * * * * * * * * * * * * * * * * * * * * * * * * * * //

dimensions      [0 3 -1 0 0 0 0];

internalField   nonuniform List<scalar> 
3782
(
-9.84035e-40
1.28832e-37
-1.1455e-39
1.87819e-38
-2.99764e-40
3.20539e-39
-1.28139e-39
3.61224e-40
-1.40268e-38
-1.86114e-40
-1.17406e-37
-1.41093e-38
-1.15032e-36
-3.66207e-37
-5.38567e-36
-6.8319e-36
-5.00191e-35
-1.63339e-34
-2.60071e-34
-1.98327e-36
-1.57965e-34
4.3643e-35
-1.1071e-32
-5.97164e-36
1.13035e-32
-9.05521e-35
1.73525e-34
-4.12992e-36
2.68465e-34
4.50812e-35
5.65539e-35
4.97251e-36
5.67638e-35
-7.82602e-39
2.35731e-34
-4.69005e-36
-1.89003e-34
-4.41266e-35
1.22214e-32
6.51538e-35
-2.65302e-32
1.56252e-34
-5.12916e-34
-5.28179e-35
-8.76564e-34
-1.57575e-34
1.2975e-32
5.60305e-35
-2.80033e-32
1.59241e-34
-5.4341e-34
-1.08706e-34
1.38993e-32
-1.16819e-34
-1.44343e-32
4.41613e-35
1.44721e-32
1.40706e-36
-1.5284e-32
-1.7342e-34
-2.93069e-34
-1.06111e-35
-3.60086e-34
-6.10354e-35
-6.9176e-35
-6.76283e-36
-7.56904e-36
-9.58149e-37
-7.2667e-36
-9.4178e-40
-6.83054e-35
9.57583e-37
-3.10399e-34
6.27609e-36
2.46133e-34
5.82145e-35
-1.61031e-32
-8.53349e-35
3.489e-32
-2.06376e-34
1.00368e-33
6.23265e-35
9.10593e-34
1.44688e-34
1.53773e-35
1.10921e-36
-9.47123e-39
7.77404e-36
-7.94876e-38
6.1918e-35
-6.8027e-37
-4.20201e-36
3.01752e-34
1.53834e-37
-1.0887e-38
1.03986e-36
-9.11031e-38
7.45388e-36
-7.74201e-37
-4.75746e-36
3.4468e-35
2.45541e-38
-1.609e-39
1.47404e-37
-1.35389e-38
9.0885e-37
-1.0932e-37
-6.39815e-37
2.85412e-36
2.51958e-39
3.93131e-40
1.4114e-38
-1.33328e-39
7.77844e-38
-1.6821e-38
-9.26989e-38
1.82719e-37
5.66594e-41
7.20223e-39
1.21746e-39
9.23888e-39
7.33115e-39
3.70599e-41
-8.9161e-39
1.2924e-38
-9.0414e-39
5.02261e-38
-3.44683e-39
6.83397e-38
-8.78807e-40
1.22932e-38
1.16874e-39
6.09784e-40
-2.20422e-37
4.21732e-37
-5.6654e-38
5.82416e-37
-1.74679e-38
9.25494e-38
1.49619e-38
-2.90943e-39
-3.93292e-36
-3.39045e-37
-6.93944e-37
4.05451e-37
-1.45246e-37
6.76864e-38
1.1532e-38
-2.12257e-38
-8.20893e-36
-7.90713e-36
-6.07548e-36
-1.63037e-36
-1.20107e-36
-2.02256e-37
-2.67066e-38
-1.58237e-37
1.51361e-36
-3.71266e-35
2.80931e-37
-4.16643e-36
1.7734e-38
-3.5807e-37
-3.33241e-38
-2.72368e-40
4.80473e-35
-2.92084e-34
7.40067e-36
-2.1629e-35
1.17504e-36
-1.18544e-36
-3.96631e-38
1.42142e-37
-6.68205e-36
-2.56348e-34
-1.17862e-36
-1.85371e-35
-1.97668e-37
-9.90623e-37
-3.04047e-38
-2.54343e-38
-9.93737e-35
2.74465e-34
-1.54152e-35
1.99169e-35
-2.4724e-36
1.06946e-36
3.34249e-38
-3.01731e-37
-4.66479e-36
2.9943e-34
-8.60905e-37
2.21653e-35
-1.45661e-37
1.2113e-36
3.95684e-38
-1.89636e-38
4.94497e-35
3.77411e-35
7.64649e-36
3.70194e-36
1.22324e-36
2.75985e-37
1.92347e-38
1.48919e-37
5.58605e-36
8.41365e-36
1.00024e-36
1.24709e-36
1.6734e-37
1.36741e-37
1.53791e-38
2.15296e-38
-7.63806e-39
8.32114e-36
-1.81761e-40
1.21213e-36
1.5221e-40
1.3066e-37
1.45052e-38
4.44813e-41
-5.25872e-36
3.2554e-35
-9.31346e-37
2.67303e-36
-1.52846e-37
1.45027e-37
2.84068e-39
-1.93915e-38
-4.82076e-35
2.84393e-34
-7.25215e-36
1.92464e-35
-1.14659e-36
8.84469e-37
4.05796e-39
-1.37631e-37
7.18087e-35
-9.89752e-35
1.14577e-35
-9.48611e-36
1.85493e-36
-6.96296e-37
-4.7594e-38
2.29094e-37
1.71448e-34
-1.01235e-33
2.65678e-35
-7.51488e-35
4.25772e-36
-4.16074e-36
-1.46365e-37
5.19217e-37
-5.79337e-35
-7.06652e-34
-8.95583e-36
-5.3743e-35
-1.43185e-36
-3.09713e-36
-1.26818e-37
-1.74224e-37
-1.72827e-34
2.08163e-34
-2.67061e-35
1.07828e-35
-4.27146e-36
1.74921e-37
-5.48488e-38
-5.19878e-37
6.145e-35
-1.14511e-34
9.49158e-36
-1.15219e-35
1.51604e-36
-9.01917e-37
-6.91085e-38
1.84327e-37
1.7452e-34
-1.04078e-33
2.68297e-35
-7.68429e-35
4.28529e-36
-4.24247e-36
-1.49339e-37
5.20496e-37
-1.19139e-34
-4.03677e-34
-1.83178e-35
-3.10765e-35
-2.92956e-36
-1.79811e-36
-7.26953e-38
-3.56175e-37
-1.28326e-34
2.78553e-34
-2.00496e-35
1.83115e-35
-3.22222e-36
8.12009e-37
6.73457e-40
-3.94376e-37
4.84003e-35
1.84903e-35
7.14053e-36
1.16283e-36
1.11499e-36
1.05212e-38
-6.61677e-39
1.31999e-37
6.93568e-36
-4.31379e-35
1.24263e-36
-3.24951e-36
1.61475e-37
-1.53729e-37
3.76857e-39
1.67289e-38
5.50717e-35
-4.09962e-34
1.63843e-36
-3.17142e-35
-6.41402e-38
-1.88185e-36
-8.82343e-38
-2.47741e-38
-6.53e-36
-4.06087e-34
-1.13256e-36
-3.15711e-35
-2.30481e-37
-1.89122e-36
-9.15893e-38
-3.31662e-38
-6.67235e-35
-5.08566e-35
-1.03848e-35
-5.13914e-36
-1.67774e-36
-4.00515e-37
-3.06178e-38
-2.0597e-37
-7.59136e-36
-1.02223e-35
-1.36603e-36
-1.51813e-36
-2.30651e-37
-1.66548e-37
-1.88546e-38
-2.98978e-38
-1.08536e-36
-1.26145e-36
-2.0391e-37
-2.139e-37
-3.70694e-38
-2.62628e-38
-3.21481e-39
-5.03652e-39
-1.19244e-39
-1.20328e-36
-3.52788e-40
-1.99107e-37
-1.05196e-40
-2.40243e-38
-2.88697e-39
-1.88591e-41
1.08298e-36
-9.88896e-36
2.01349e-37
-1.4188e-36
3.61879e-38
-1.50609e-37
-1.65191e-38
4.86714e-39
7.03932e-36
-4.28422e-35
1.24901e-36
-3.50824e-36
2.05509e-37
-1.88959e-37
-3.43929e-39
2.61291e-38
6.36007e-35
-3.75129e-34
9.57015e-36
-2.5389e-35
1.51323e-36
-1.16635e-36
-5.24066e-39
1.81664e-37
-9.40564e-35
1.27407e-34
-1.5013e-35
1.23593e-35
-2.43113e-36
9.20052e-37
6.44377e-38
-3.00337e-37
-2.26481e-34
1.33718e-33
-3.51323e-35
9.99824e-35
-5.63452e-36
5.61175e-36
2.09259e-37
-6.87609e-37
6.81958e-35
9.73162e-34
1.03689e-35
7.43052e-35
1.65142e-36
4.27136e-36
1.7082e-37
1.99721e-37
1.58944e-34
1.29065e-34
2.48233e-35
1.32502e-35
3.98875e-36
1.04709e-36
8.055e-38
4.88087e-37
1.7289e-35
3.12086e-36
5.27821e-37
6.85748e-38
4.07934e-34
-3.3354e-35
9.89413e-33
-2.58927e-35
6.2706e-36
6.41486e-35
-9.83571e-33
6.35866e-35
-8.67928e-35
-3.02254e-35
1.50653e-34
-6.73466e-35
1.01508e-32
-3.44902e-35
4.52463e-34
2.96076e-35
3.13452e-34
3.39232e-35
5.75233e-35
4.32114e-36
6.23317e-36
6.23946e-37
6.4927e-37
6.40084e-38
-1.44144e-36
1.94427e-38
-1.16973e-35
1.19701e-37
-1.0887e-34
1.18541e-36
-5.70084e-34
8.0244e-36
-5.96779e-34
6.35803e-35
-1.98989e-32
2.58408e-35
9.60459e-33
-9.50042e-35
2.89533e-34
-7.17276e-35
1.04124e-32
-4.74643e-36
5.60912e-34
3.60184e-35
6.33564e-34
3.54237e-35
5.17351e-34
-2.62693e-35
1.02139e-32
-2.93738e-35
4.59045e-34
3.05007e-35
3.14394e-34
3.71191e-35
5.86121e-35
6.25605e-36
7.9051e-36
-1.31771e-36
1.28462e-35
-3.18857e-36
1.14638e-34
-1.42144e-36
6.24158e-34
-8.24242e-36
8.71014e-34
-6.13793e-35
2.02031e-32
7.39633e-35
9.70963e-34
9.33212e-35
-9.29073e-33
4.25906e-35
1.91549e-32
-8.77405e-36
-1.97944e-32
9.13085e-35
-5.46388e-34
1.08881e-36
-5.36732e-35
2.37775e-34
-3.71551e-35
3.93722e-34
-2.87106e-35
8.3958e-37
7.14199e-35
-3.8668e-34
7.07809e-35
-2.01672e-34
-3.36176e-35
2.0944e-34
-7.50368e-35
4.22769e-34
-3.84471e-35
2.43754e-34
3.29147e-35
3.58688e-35
3.78023e-35
6.91832e-36
4.89399e-36
8.34327e-37
7.10063e-37
8.88207e-38
7.3381e-38
-1.98422e-37
2.23526e-38
-1.5625e-36
1.37193e-37
-1.30104e-35
1.3485e-36
-6.49159e-35
9.08489e-36
-4.52344e-34
7.07737e-35
-6.07666e-34
2.86509e-35
-2.35917e-35
-1.05755e-34
4.17246e-34
-8.00083e-35
4.52017e-34
-5.57883e-36
2.56296e-34
3.68356e-35
7.30404e-35
3.70813e-35
2.52116e-34
-3.24669e-35
4.30445e-34
-3.28577e-35
2.44243e-34
3.37308e-35
3.60528e-35
3.82893e-35
7.89091e-36
7.99552e-36
1.11705e-36
-2.3992e-36
1.30906e-36
-4.78932e-37
1.36611e-35
-1.43434e-36
7.08234e-35
-9.52976e-36
4.83242e-34
-7.17432e-35
8.35746e-34
-5.82082e-35
3.02635e-34
1.0019e-34
5.91772e-35
4.40861e-35
1.39839e-34
-1.17504e-35
-4.02758e-34
9.84372e-35
-4.23226e-34
4.17574e-36
-5.76037e-35
1.31547e-35
-4.3485e-36
2.05547e-35
-3.21919e-36
1.19791e-37
8.32024e-36
-1.96788e-35
8.23057e-36
-1.01491e-35
-3.88045e-36
1.11254e-35
-8.80057e-36
2.26799e-35
-4.53033e-36
1.38718e-35
3.78127e-36
2.96567e-36
4.43979e-36
8.54895e-37
6.59505e-37
1.18786e-37
1.0028e-37
1.40611e-38
1.09947e-38
-3.16587e-38
3.43739e-39
-2.20594e-37
2.05072e-38
-1.59236e-36
1.89845e-37
-5.09183e-36
1.2198e-36
-2.48758e-35
8.22947e-36
-3.21917e-35
3.21006e-36
-1.47568e-36
-1.2302e-35
2.20206e-35
-9.47111e-36
2.48459e-35
-7.51123e-37
1.54101e-35
4.32327e-36
6.10426e-36
4.49659e-36
1.49208e-35
-3.69802e-36
2.36413e-35
-3.76718e-36
1.39559e-35
3.90234e-36
2.99379e-36
4.52399e-36
9.69081e-37
1.20533e-36
1.61818e-37
-4.46713e-37
1.92157e-37
-8.27296e-38
1.62365e-36
-2.05639e-37
5.33677e-36
-1.27205e-36
2.68432e-35
-8.36032e-36
4.60005e-35
-3.64657e-36
1.87208e-35
1.15612e-35
4.47533e-36
5.32644e-36
6.8379e-36
-7.8873e-37
-2.17825e-35
1.13483e-35
-2.38184e-35
5.5869e-37
-6.60533e-36
5.28888e-37
-5.98184e-37
7.55938e-37
-4.3771e-37
1.15384e-38
1.14619e-36
-6.79924e-37
1.13228e-36
-3.34744e-37
-5.33279e-37
4.20263e-37
-1.21365e-36
8.7367e-37
-6.26951e-37
5.8939e-37
5.17835e-37
1.90101e-37
6.12903e-37
7.38049e-38
9.52343e-38
1.14268e-38
1.56306e-38
1.42786e-39
1.79757e-39
-3.23557e-39
5.86157e-40
-2.11144e-38
3.34074e-39
-1.36327e-37
2.95125e-38
-3.07966e-37
1.7502e-37
-9.97942e-37
1.1321e-36
-1.21702e-36
4.36267e-37
-6.35863e-38
-1.69528e-36
8.18033e-37
-1.31071e-36
9.92662e-37
-1.09859e-37
7.18288e-37
5.9108e-37
3.99059e-37
5.94224e-37
6.84469e-37
-5.08533e-37
9.57739e-37
-5.15934e-37
5.95517e-37
5.36463e-37
1.93331e-37
6.22762e-37
8.93138e-38
1.49002e-37
1.61244e-38
-3.83289e-38
1.59933e-38
-9.53837e-39
1.36251e-37
-3.1123e-38
3.11812e-37
-1.78298e-37
1.09101e-36
-1.13142e-36
1.87893e-36
-3.54968e-37
8.91439e-37
1.60838e-36
2.57454e-37
7.44735e-37
2.44987e-37
-1.15678e-37
-8.60685e-37
1.55956e-36
-1.02253e-36
8.97871e-38
-8.78427e-37
1.0846e-38
-5.59944e-38
6.98629e-39
-4.01932e-38
1.19977e-39
1.07318e-37
3.9955e-40
1.05874e-37
3.08084e-39
-4.97265e-38
5.27624e-39
-1.13926e-37
1.34979e-38
-5.90485e-38
1.66058e-38
4.8117e-38
1.34957e-38
5.75896e-38
7.13756e-39
9.49118e-39
1.1865e-39
1.63032e-39
1.55983e-40
1.95562e-40
-3.55119e-40
6.54699e-41
-2.18189e-39
3.62544e-40
-1.31048e-38
3.07065e-39
-2.00256e-38
1.73723e-38
-2.06629e-38
1.05853e-37
-1.59773e-38
4.0042e-38
-1.39808e-39
-1.58693e-37
8.23226e-39
-1.23611e-37
2.02186e-38
-1.09668e-38
2.90179e-38
5.55202e-38
2.8871e-38
5.72164e-38
2.58766e-38
-4.69402e-38
2.16942e-38
-4.78573e-38
1.73316e-38
5.01192e-38
1.38398e-38
5.87809e-38
8.59635e-39
1.6037e-38
1.68385e-39
-4.93643e-39
1.6768e-39
-1.15035e-39
1.27166e-38
-3.24988e-39
1.77532e-38
-1.74526e-38
2.27359e-38
-1.04724e-37
4.66382e-38
-2.83291e-38
3.88123e-38
1.51208e-37
1.57473e-38
7.13705e-38
2.54991e-39
-6.73522e-39
-1.7576e-38
1.45646e-37
-3.19069e-38
9.19641e-39
-8.20802e-38
-4.22172e-40
-5.39184e-39
-1.46749e-39
-4.0035e-39
1.02675e-40
1.08662e-38
2.06775e-39
1.07072e-38
1.34924e-39
-5.02593e-39
-6.6089e-40
-1.15394e-38
-1.09752e-39
-5.99555e-39
8.7935e-41
4.85099e-39
9.3451e-40
5.83733e-39
5.83273e-40
9.88464e-40
1.02044e-40
1.7735e-40
1.37857e-41
2.19013e-41
-3.15129e-41
7.51549e-42
-1.8711e-40
4.05076e-41
-1.06597e-39
3.3345e-40
-1.30096e-39
1.80191e-39
6.77997e-40
1.07045e-38
1.83401e-39
4.01586e-39
4.49449e-41
-1.60689e-38
-1.52323e-39
-1.25497e-38
-7.27593e-40
-1.15036e-39
1.08389e-39
5.59877e-39
2.04107e-39
5.71283e-39
8.67033e-40
-4.73651e-39
-4.23002e-40
-4.82363e-39
1.41462e-40
5.06818e-39
9.66895e-40
5.95523e-39
7.29972e-40
1.587e-39
1.4749e-40
-4.23503e-40
1.30786e-40
-1.12451e-40
1.01198e-39
-3.45808e-40
1.0059e-39
-1.76273e-39
-7.51631e-40
-1.03711e-38
-3.50558e-40
-1.4755e-39
1.66525e-39
1.55101e-38
9.71134e-40
7.32693e-39
-3.88143e-40
-6.4354e-40
6.14573e-40
1.47336e-38
-5.43213e-40
1.01195e-39
-8.18436e-39
-5.16786e-40
1.35075e-39
-2.49363e-40
-1.42788e-40
3.59884e-42
9.27663e-40
2.51246e-40
8.9793e-40
1.56021e-40
-4.20021e-40
-9.66249e-41
-9.68268e-40
-1.7471e-40
-5.04223e-40
-3.91646e-41
4.0453e-40
7.38222e-41
4.90131e-40
5.01504e-41
8.57992e-41
9.01728e-42
1.58426e-41
1.24456e-42
2.00869e-42
-2.85268e-42
7.01354e-43
-1.64966e-41
3.70867e-42
-9.14186e-41
2.97382e-41
-9.88693e-41
1.55973e-40
1.45081e-40
8.96138e-40
2.72045e-40
3.32367e-40
9.99181e-42
-1.34648e-39
-2.10987e-40
-1.05604e-39
-1.49036e-40
-9.99318e-41
4.64007e-41
4.70188e-40
1.62514e-40
4.88338e-40
2.79612e-41
-3.92936e-40
-1.16517e-40
-4.01675e-40
-3.4057e-41
4.24322e-40
7.67148e-41
5.0174e-40
6.2466e-41
1.44804e-40
1.30354e-41
-4.33713e-41
1.14618e-41
-1.10459e-41
8.45181e-41
-3.07477e-41
6.07697e-41
-1.49652e-40
-1.6802e-40
-8.54385e-40
-1.74294e-40
-5.33099e-41
9.66459e-41
1.31154e-39
7.35129e-41
6.24919e-40
-5.47785e-41
-3.12089e-41
1.26048e-40
1.23374e-39
2.85381e-41
8.96009e-41
-6.86417e-40
-2.74212e-39
1.37297e-39
-3.08627e-40
1.21557e-40
-3.00079e-41
9.20452e-41
1.80899e-41
7.83417e-41
1.26039e-41
-3.60172e-41
-8.32906e-42
-8.33724e-41
-1.5255e-41
-4.34897e-41
-4.14341e-42
3.47163e-41
5.44188e-42
4.2226e-41
3.82896e-42
7.52803e-42
7.05329e-43
1.42407e-42
9.86486e-44
1.83812e-43
-2.26699e-43
6.51142e-44
-1.28835e-42
3.38883e-43
-6.96345e-42
2.67011e-42
-7.164e-42
1.36521e-41
1.31785e-41
7.70767e-41
2.34719e-41
2.84103e-41
9.26516e-43
-1.15909e-40
-1.80123e-41
-9.10886e-41
-1.35387e-41
-8.80138e-42
2.31695e-42
4.03938e-41
1.2092e-41
4.18189e-41
1.06729e-42
-3.37141e-41
-1.07938e-41
-3.44597e-41
-3.78213e-42
3.64964e-41
5.68065e-42
4.3235e-41
4.88428e-42
1.2446e-41
1.02961e-42
-3.51265e-42
8.27756e-43
-9.50843e-43
6.29315e-42
-2.71239e-42
3.61086e-42
-1.27358e-41
-1.56024e-41
-7.18171e-41
-1.64818e-41
4.97936e-42
6.4338e-42
1.14467e-40
5.34834e-42
5.44668e-41
-4.53233e-42
-2.26104e-42
1.14764e-41
1.06146e-40
3.95896e-42
8.0935e-42
-5.86e-41
-1.96548e-38
-2.96189e-39
-1.99466e-39
-2.88378e-40
-2.04916e-40
-1.8825e-41
-1.69057e-41
3.75505e-42
-6.47321e-43
-2.92744e-42
-7.97757e-43
-6.39524e-42
-1.23213e-42
-3.33481e-42
-3.49619e-43
2.64603e-42
4.12442e-43
3.23341e-42
2.94423e-43
5.8881e-43
5.50264e-44
1.13336e-43
7.77939e-45
1.48785e-44
-1.79093e-44
5.32902e-45
-1.00388e-43
2.73983e-44
-5.34693e-43
2.12271e-43
-5.39193e-43
1.06593e-42
1.06739e-42
5.89035e-42
1.87264e-42
2.15426e-42
7.58831e-44
-8.86379e-42
-1.43245e-42
-6.98518e-42
-1.09442e-42
-6.88422e-43
1.47468e-43
3.09476e-42
9.18424e-43
3.24498e-42
5.26418e-44
-2.55918e-42
-8.77667e-43
-2.62354e-42
-3.19599e-43
2.7898e-42
4.31313e-43
3.31934e-42
3.7514e-43
1.00706e-42
8.02504e-44
-3.06398e-43
6.29055e-44
-8.07553e-44
4.70436e-43
-2.14141e-43
2.00741e-43
-9.71633e-43
-1.31215e-42
-5.38065e-42
-1.30608e-42
9.26493e-43
5.19187e-43
8.85306e-42
4.14361e-43
4.22604e-42
-3.55957e-43
-6.64895e-44
9.25656e-43
8.1154e-42
3.50317e-43
6.40609e-43
-4.48785e-42
-5.10962e-40
-3.05748e-39
-8.32021e-41
-2.73742e-40
-1.17687e-41
-2.28034e-41
-1.16322e-42
-1.5634e-42
-6.04809e-44
-3.72011e-43
-5.90099e-44
-5.00798e-43
-8.80245e-44
-2.56183e-43
-2.53532e-44
2.01769e-43
2.88472e-44
2.47352e-43
2.07671e-44
4.56397e-44
3.93954e-45
8.91012e-45
5.61158e-46
1.18358e-45
-1.29416e-45
4.27686e-46
-7.18035e-45
2.1775e-45
-3.76586e-44
1.66754e-44
-3.75621e-44
8.25017e-44
7.63452e-44
4.50052e-43
1.33186e-43
1.63804e-43
5.48657e-45
-6.77613e-43
-1.0185e-43
-5.34851e-43
-7.84901e-44
-5.34627e-44
9.45479e-45
2.36407e-43
6.45782e-44
2.47825e-43
3.37796e-45
-1.95054e-43
-6.26849e-44
-2.0004e-43
-2.3334e-44
2.13159e-43
3.02515e-44
2.54063e-43
2.69168e-44
7.75004e-44
5.77769e-45
-2.30649e-44
4.1757e-45
-6.25475e-45
3.2306e-44
-1.65467e-44
1.00033e-44
-7.30164e-44
-9.67091e-44
-4.01054e-43
-9.07788e-44
1.25255e-43
3.89523e-44
6.86403e-43
2.94606e-44
3.26771e-43
-2.46109e-44
-2.3643e-45
6.64811e-44
6.20189e-43
2.54702e-44
5.04674e-44
-3.41515e-43
1.45834e-38
5.90289e-40
1.31709e-39
2.29884e-40
1.1656e-40
2.37093e-41
9.48024e-42
2.04551e-42
7.55349e-43
1.37694e-43
5.24618e-44
-2.33011e-44
-2.05582e-45
-1.72343e-44
-1.50272e-45
1.42209e-44
2.02266e-45
1.74272e-44
1.45026e-45
3.26255e-45
2.77715e-46
6.43819e-46
3.97968e-47
8.65051e-47
-9.18862e-47
3.14805e-47
-5.05654e-46
1.59022e-46
-2.62503e-45
1.20398e-45
-2.60356e-45
5.89059e-45
5.34806e-45
3.1657e-44
9.30765e-45
1.14567e-44
3.87155e-46
-4.76853e-44
-7.11687e-45
-3.77145e-44
-5.49843e-45
-3.81989e-45
6.39772e-46
1.66649e-44
4.49216e-45
1.76382e-44
2.25455e-46
-1.36482e-44
-4.38434e-45
-1.40311e-44
-1.64123e-45
1.49974e-44
2.10382e-45
1.79337e-44
1.88149e-45
5.67875e-45
4.06722e-46
-1.78073e-45
2.82294e-46
-4.74046e-46
2.18796e-45
-1.1832e-45
3.67782e-46
-5.07782e-45
-7.03077e-45
-2.75696e-44
-6.10019e-45
1.2026e-44
2.99826e-45
4.8914e-44
2.10627e-45
2.32871e-44
-1.69315e-45
2.68905e-46
4.65321e-45
4.36422e-44
1.79211e-45
3.63293e-45
-2.40733e-44
-2.71546e-39
8.73198e-40
-2.55591e-40
2.30179e-40
-2.33598e-41
2.30934e-41
-1.96001e-42
1.96802e-42
-1.59374e-43
1.48822e-43
-1.24105e-44
8.60448e-45
-1.30098e-45
-4.89e-46
-1.80378e-46
1.03336e-45
1.26185e-46
1.21361e-45
9.44973e-47
2.29071e-46
1.83329e-47
4.55707e-47
2.64094e-48
6.17276e-48
-6.10866e-48
2.25863e-48
-3.34013e-47
1.13392e-47
-1.71513e-46
8.51511e-47
-1.692e-46
4.12866e-46
3.50052e-46
2.19684e-45
6.08135e-46
7.91973e-46
2.55299e-47
-3.31034e-45
-4.65196e-46
-2.62159e-45
-3.60777e-46
-2.68193e-46
4.03787e-47
1.15689e-45
2.93686e-46
1.22611e-45
1.54644e-47
-9.44823e-46
-2.86326e-46
-9.72028e-46
-1.08294e-46
1.04078e-45
1.3729e-46
1.24659e-45
1.24717e-46
3.98288e-46
2.6968e-47
-1.24425e-46
1.72616e-47
-3.35305e-47
1.38959e-46
-8.23374e-47
4.98893e-48
-3.44949e-46
-4.74915e-46
-1.86257e-45
-3.84003e-46
1.09916e-45
2.11693e-46
3.4446e-45
1.4016e-46
1.63394e-45
-1.07923e-46
3.21316e-47
3.05762e-46
3.02905e-45
1.1689e-46
2.57284e-46
-1.66731e-45
-3.13054e-38
-8.62198e-40
-2.85444e-39
-2.41623e-40
-2.55382e-40
-2.44332e-41
-2.09573e-41
-2.09012e-42
-1.67802e-42
-1.60007e-43
-1.25935e-43
-1.19337e-44
-9.21831e-45
-9.00757e-46
-6.44858e-46
8.58185e-48
-3.46012e-47
7.54325e-47
3.31182e-48
1.48763e-47
1.01292e-48
3.01308e-48
1.60989e-49
4.12558e-49
-3.9759e-49
1.51908e-49
-2.15971e-48
7.59032e-49
-1.10038e-47
5.65411e-48
-1.08158e-47
2.72235e-47
2.24769e-47
1.43267e-46
3.90036e-47
5.14246e-47
1.64847e-48
-2.1595e-46
-2.98414e-47
-1.71282e-46
-2.3179e-47
-1.76847e-47
2.55448e-48
7.55921e-47
1.88291e-47
8.07263e-47
1.00539e-48
-6.13531e-47
-1.83552e-47
-6.3251e-47
-6.96861e-48
6.78888e-47
8.79809e-48
8.15242e-47
8.03614e-48
2.67947e-47
1.74237e-48
-8.70242e-48
1.05598e-48
-2.3127e-48
8.6394e-48
-5.40334e-48
-1.04589e-48
-2.20863e-47
-3.15877e-47
-1.18348e-46
-2.35293e-47
8.71838e-47
1.48368e-47
2.27726e-46
9.22958e-48
1.07811e-46
-6.80675e-48
3.67698e-48
1.96436e-47
1.97607e-46
7.49135e-48
1.70471e-47
-1.08961e-46
-2.02772e-39
-7.71751e-40
-1.91512e-40
-2.55868e-40
-1.74866e-41
-2.62914e-41
-1.4678e-42
-2.25994e-42
-1.19305e-43
-1.73303e-43
-9.09812e-45
-1.27839e-44
-6.73484e-46
-8.94272e-46
-4.76094e-47
-5.60464e-47
-2.69952e-48
1.16444e-48
1.62274e-49
7.28773e-49
5.97742e-50
1.81357e-49
9.77043e-51
2.608e-50
-2.45499e-50
9.89364e-51
-1.32773e-49
4.94776e-50
-6.70972e-49
3.66389e-49
-6.56899e-49
1.75436e-48
1.37131e-48
9.15975e-48
2.37677e-48
3.27745e-48
1.01139e-49
-1.38102e-47
-1.81925e-48
-1.09656e-47
-1.41715e-48
-1.14045e-48
1.51844e-49
4.83654e-48
1.14903e-48
5.17655e-48
6.43714e-50
-3.91332e-48
-1.11777e-48
-4.03807e-48
-4.27743e-49
4.34066e-48
5.36092e-49
5.22047e-48
4.95831e-49
1.73395e-48
1.07328e-49
-5.66237e-49
5.9669e-50
-1.51044e-49
5.10362e-49
-3.44453e-49
-1.41322e-49
-1.37653e-48
-1.98851e-48
-7.34857e-48
-1.37214e-48
6.68636e-48
9.72976e-49
1.47759e-47
5.74679e-49
6.96486e-48
-4.05352e-49
2.90524e-49
1.20275e-48
1.26358e-47
4.55026e-49
1.10531e-48
-6.96214e-48
1.54182e-38
1.31697e-39
1.40337e-39
8.94227e-41
1.25377e-40
6.45057e-42
1.0276e-41
4.91713e-43
8.21958e-43
3.61081e-44
6.16246e-44
2.6158e-45
4.49542e-45
1.79967e-46
3.11438e-46
1.2365e-47
2.10111e-47
1.08745e-48
1.37625e-48
1.08641e-49
8.93826e-50
1.50488e-50
5.77965e-51
1.84553e-51
-1.17244e-51
6.28398e-52
-7.95337e-51
3.0687e-51
-4.0034e-50
2.2586e-50
-3.90786e-50
1.07682e-49
8.18532e-50
5.57472e-49
1.41743e-49
1.98786e-49
6.06412e-51
-8.40675e-49
-1.08521e-49
-6.68337e-49
-8.46633e-50
-6.99724e-50
8.93888e-51
2.9488e-49
6.85469e-50
3.17602e-49
3.92049e-51
-2.37308e-49
-6.66281e-50
-2.45325e-49
-2.55975e-50
2.64224e-49
3.19619e-50
3.18462e-49
2.97381e-50
1.08189e-49
6.43632e-51
-3.64274e-50
3.33672e-51
-9.60841e-51
2.94176e-50
-2.09486e-50
-1.34487e-50
-8.17842e-50
-1.22734e-49
-4.34378e-49
-7.77581e-50
4.70322e-49
6.27204e-50
9.12023e-49
3.5179e-50
4.28486e-49
-2.37502e-50
2.28358e-50
7.18876e-50
7.69244e-49
2.70906e-50
6.80255e-50
-4.24613e-49
2.28596e-39
1.56407e-39
2.14451e-40
1.37595e-40
1.94924e-41
1.12298e-41
1.62908e-42
9.01286e-43
1.31998e-43
6.77787e-44
1.00347e-44
4.96776e-45
7.39453e-46
3.4536e-46
5.17726e-47
2.33735e-47
3.51794e-48
1.53059e-48
2.30099e-49
9.88293e-50
1.47146e-50
6.5066e-51
9.17785e-52
4.42366e-52
-3.29656e-53
5.69349e-53
-4.56025e-52
1.86255e-52
-2.2909e-51
1.3571e-51
-2.22922e-51
6.44877e-51
4.68571e-51
3.31708e-50
8.10656e-51
1.17971e-50
3.48682e-52
-5.00299e-50
-6.20903e-51
-3.98112e-50
-4.85577e-51
-4.19062e-51
5.00401e-52
1.75631e-50
3.92582e-51
1.89678e-50
2.33735e-52
-1.40879e-50
-3.80847e-51
-1.4579e-50
-1.47302e-51
1.57227e-50
1.82817e-51
1.89775e-50
1.719e-51
6.51898e-51
3.70938e-52
-2.21719e-51
1.74487e-52
-5.84373e-52
1.62488e-51
-1.23758e-51
-1.0446e-51
-4.72437e-51
-7.24567e-51
-2.50304e-50
-4.2261e-51
3.20769e-50
3.83816e-51
5.50767e-50
2.05845e-51
2.57497e-50
-1.32864e-51
1.55449e-51
4.12908e-51
4.57776e-50
1.54443e-51
4.08787e-51
-2.52722e-50
7.16235e-42
1.45973e-39
8.69222e-43
1.27616e-40
9.39568e-44
1.03623e-41
8.95401e-45
8.28922e-43
7.98179e-46
6.21403e-44
6.56359e-47
4.54404e-45
5.13286e-48
3.15191e-46
3.78105e-49
2.12798e-47
2.68176e-50
1.37621e-48
1.8711e-51
8.66938e-50
1.31094e-52
5.28237e-51
9.3596e-54
3.15069e-52
-4.35388e-54
1.98302e-53
-2.57706e-53
1.1705e-53
-1.28123e-52
7.82906e-53
-1.24352e-52
3.70874e-52
2.62103e-52
1.89484e-51
4.53121e-52
6.72018e-52
1.95762e-53
-2.85827e-51
-3.47152e-52
-2.27677e-51
-2.719e-52
-2.40835e-52
2.76013e-53
1.00495e-51
2.19575e-52
1.0912e-51
1.33669e-53
-8.02219e-52
-2.12787e-52
-8.31581e-52
-8.26361e-53
8.98269e-52
1.0218e-52
1.08622e-51
9.66727e-53
3.80192e-52
2.0818e-53
-1.32605e-52
8.95977e-54
-3.46185e-53
8.74574e-53
-7.02808e-53
-7.47378e-53
-2.62095e-52
-4.18491e-52
-1.38389e-51
-2.22936e-52
2.05702e-51
2.29936e-52
3.19174e-51
1.18055e-52
1.48593e-51
-7.29041e-53
1.03976e-52
2.31392e-52
2.6156e-51
8.61484e-53
2.35374e-52
-1.4467e-51
-2.02656e-39
-4.4295e-40
-1.8817e-40
-6.9441e-41
-1.69385e-41
-6.65879e-42
-1.40598e-42
-5.65796e-43
-1.13235e-43
-4.36512e-44
-8.56967e-45
-3.2404e-45
-6.29083e-46
-2.27526e-46
-4.3917e-47
-1.5497e-47
-2.97538e-48
-1.01009e-48
-1.9327e-49
-6.39579e-50
-1.21963e-50
-3.89999e-51
-7.42151e-52
-2.3124e-52
-4.42033e-53
-1.31757e-53
-3.91846e-54
-1.39358e-55
-7.05557e-54
4.35593e-54
-6.70126e-54
2.08021e-53
1.41483e-53
1.05723e-52
2.44414e-53
3.74118e-53
1.06055e-54
-1.59494e-52
-1.87327e-53
-1.27149e-52
-1.47031e-53
-1.35043e-53
1.46045e-54
5.61348e-53
1.186e-53
6.11346e-53
7.47143e-55
-4.46602e-53
-1.14725e-53
-4.6347e-53
-4.48179e-54
5.01218e-53
5.51278e-54
6.06922e-53
5.26372e-54
2.14816e-53
1.12901e-54
-7.58505e-54
4.3281e-55
-1.97392e-54
4.53631e-54
-3.88006e-54
-4.89284e-54
-1.41365e-53
-2.32818e-53
-7.45248e-53
-1.13303e-53
1.28083e-52
1.32015e-53
1.80753e-52
6.51955e-54
8.37029e-53
-3.84808e-54
6.40645e-54
1.2531e-53
1.45955e-52
4.63242e-54
1.3225e-53
-8.07903e-53
-1.41318e-38
-4.25783e-39
-1.27481e-39
-5.56034e-40
-1.1322e-40
-5.05006e-41
-9.22235e-42
-4.19211e-42
-7.34411e-43
-3.18027e-43
-5.48115e-44
-2.33562e-44
-3.9847e-45
-1.62301e-45
-2.75118e-46
-1.09682e-46
-1.84813e-47
-7.09318e-48
-1.1895e-48
-4.46343e-49
-7.44995e-50
-2.70558e-50
-4.49791e-51
-1.59699e-51
-2.64478e-52
-9.12222e-53
-1.51299e-53
-5.04701e-54
-1.20021e-54
-3.62398e-56
-3.97234e-55
1.11261e-54
7.43783e-55
5.69557e-54
1.28804e-54
2.01104e-54
5.60968e-56
-8.5941e-54
-9.87571e-55
-6.85713e-54
-7.76289e-55
-7.30946e-55
7.59395e-56
3.02939e-54
6.25588e-55
3.31497e-54
4.03055e-56
-2.39951e-54
-6.04427e-55
-2.49405e-54
-2.37092e-55
2.70086e-54
2.9057e-55
3.27579e-54
2.7917e-55
1.17827e-54
5.96742e-56
-4.25069e-55
2.0375e-56
-1.09698e-55
2.29188e-55
-2.06989e-55
-3.05409e-55
-7.3593e-55
-1.26624e-54
-3.87103e-54
-5.58476e-55
7.60236e-54
7.40815e-55
9.88205e-54
3.52429e-55
4.55376e-54
-1.98936e-55
3.858e-55
6.62283e-55
7.86554e-54
2.43576e-55
7.16568e-55
-4.3623e-54
2.39038e-38
-3.19723e-39
2.19457e-39
-2.13817e-40
1.97128e-40
-1.53305e-41
1.62506e-41
-1.16676e-42
1.30512e-42
-8.5753e-44
9.82592e-44
-6.22061e-45
7.19049e-45
-4.29245e-46
4.99771e-46
-2.88827e-47
3.37498e-47
-1.86037e-48
2.18363e-48
-1.16693e-49
1.37353e-49
-7.05097e-51
8.32791e-51
-4.15068e-52
4.91413e-52
-2.36464e-53
2.80704e-53
-1.31188e-54
1.54421e-54
-5.82544e-56
6.65479e-56
5.58535e-56
4.26009e-56
2.99583e-55
6.60364e-56
1.05622e-55
2.88796e-57
-4.52297e-55
-5.04694e-56
-3.61143e-55
-3.97475e-56
-3.86139e-56
3.81138e-57
1.59621e-55
3.20015e-56
1.75213e-55
2.12457e-57
-1.26004e-55
-3.08661e-56
-1.31123e-55
-1.21723e-56
1.42143e-55
1.48483e-56
1.72625e-55
1.43831e-56
6.27779e-56
3.05991e-57
-2.29483e-56
9.01761e-58
-5.89623e-57
1.12011e-56
-1.07469e-56
-1.80034e-56
-3.72639e-56
-6.66627e-56
-1.95827e-55
-2.65864e-56
4.38723e-55
4.00989e-56
5.27882e-55
1.84395e-56
2.41877e-55
-9.94505e-57
2.19651e-56
3.39607e-56
4.13978e-55
1.24051e-56
3.78954e-56
-2.2987e-55
5.38352e-38
1.00546e-39
4.90605e-39
7.09256e-40
4.38738e-40
7.56393e-41
3.59896e-41
6.55806e-42
2.88071e-42
5.03682e-43
2.16105e-43
3.71246e-44
1.57725e-44
2.58214e-45
1.09325e-45
1.74535e-46
7.36695e-47
1.1287e-47
4.75605e-48
7.10198e-49
2.98625e-49
4.30463e-50
1.80737e-50
2.54066e-51
1.06487e-51
1.45123e-52
6.07434e-53
8.08038e-54
3.37612e-54
4.37556e-55
1.81478e-55
2.61088e-56
1.1516e-56
1.64828e-56
3.77905e-57
5.43964e-57
1.68806e-58
-2.30798e-56
-2.51959e-57
-1.84443e-56
-1.98809e-57
-1.97749e-57
1.87735e-58
8.1587e-57
1.59943e-57
8.99434e-57
1.08561e-58
-6.41387e-57
-1.5407e-57
-6.68444e-57
-6.1007e-58
7.25465e-57
7.41539e-58
8.82344e-57
7.22743e-58
3.25467e-57
1.5308e-58
-1.21233e-57
3.84523e-59
-3.09162e-58
5.33205e-58
-5.41182e-58
-1.02329e-57
-1.82743e-57
-3.43104e-57
-9.58988e-57
-1.22623e-57
2.43399e-56
2.12063e-57
2.73399e-56
9.44054e-58
1.24595e-56
-4.86699e-58
1.22022e-57
1.70069e-57
2.113e-56
6.17825e-58
1.94143e-57
-1.17566e-56
-1.80277e-38
-1.91623e-39
-1.64016e-39
2.61359e-40
-1.46474e-40
3.36696e-41
-1.20012e-41
3.04212e-42
-9.59694e-43
2.36218e-43
-7.19343e-44
1.74652e-44
-5.24658e-45
1.21561e-45
-3.63441e-46
8.21745e-47
-2.44786e-47
5.31342e-48
-1.57962e-48
3.34282e-49
-9.91465e-50
2.02578e-50
-5.99871e-51
1.19546e-51
-3.53341e-52
6.82729e-53
-2.01511e-53
3.80075e-54
-1.12014e-54
2.05508e-55
-6.05232e-56
1.09934e-56
-3.0941e-57
1.31978e-57
-3.96731e-60
2.95805e-58
-1.17995e-60
-1.14976e-57
-1.22848e-58
-9.20351e-58
-9.676e-59
-9.89036e-59
8.96462e-60
4.07397e-58
7.77662e-59
4.50548e-58
5.42192e-60
-3.19182e-58
-7.47872e-59
-3.33053e-58
-2.97594e-59
3.61799e-58
3.60191e-59
4.40586e-58
3.53694e-59
1.64267e-58
7.45141e-60
-6.20122e-59
1.52216e-60
-1.57353e-59
2.46146e-59
-2.65558e-59
-5.57077e-59
-8.7216e-59
-1.71554e-58
-4.57465e-58
-5.46559e-59
1.3147e-57
1.08672e-58
1.38403e-57
4.69551e-59
6.26985e-58
-2.31201e-59
6.49516e-59
8.28778e-59
1.05384e-57
2.99074e-59
9.71388e-59
-5.87231e-58
-5.38197e-38
-9.0808e-39
-4.89804e-39
-9.31216e-40
-4.37562e-40
-7.94831e-41
-3.58598e-41
-6.46631e-42
-2.86823e-42
-4.87127e-43
-2.15027e-43
-3.56787e-44
-1.56855e-44
-2.47553e-45
-1.0867e-45
-1.67138e-46
-7.31995e-47
-1.07996e-47
-4.72402e-48
-6.79109e-49
-2.96528e-49
-4.11377e-50
-1.7942e-50
-2.42682e-51
-1.05688e-51
-1.38554e-52
-6.02759e-53
-7.71136e-54
-3.3505e-54
-4.16793e-55
-1.80915e-55
-2.19775e-56
-9.52796e-57
-1.09214e-57
-4.8156e-58
-4.36884e-59
-2.41869e-59
-5.86161e-59
-7.01618e-60
-4.4812e-59
-4.65944e-60
-4.81713e-60
4.17282e-61
1.97931e-59
3.69683e-60
2.19771e-59
2.63347e-61
-1.5447e-59
-3.55053e-60
-1.61415e-59
-1.41855e-60
1.75524e-59
1.71097e-60
2.14039e-59
1.6903e-60
8.08285e-60
3.54264e-61
-3.10315e-60
5.64471e-62
-7.82045e-61
1.10676e-60
-1.26738e-60
-2.94011e-60
-4.0408e-60
-8.38952e-60
-2.11767e-59
-2.3554e-60
6.86562e-59
5.44254e-60
6.81477e-59
2.28568e-60
3.06927e-59
-1.07519e-60
3.3733e-60
3.94766e-60
5.11296e-59
1.4164e-60
4.72425e-60
-2.85503e-59
1.90586e-38
-5.30286e-39
1.73305e-39
-3.95794e-40
1.54698e-40
-3.01034e-41
1.26707e-41
-2.35097e-42
1.01293e-42
-1.74856e-43
7.59079e-44
-1.27561e-44
5.53537e-45
-8.84016e-46
3.8339e-46
-5.96612e-47
2.58191e-47
-3.85433e-48
1.66597e-48
-2.42346e-49
1.04558e-49
-1.4679e-50
6.32577e-51
-8.65885e-52
3.7259e-52
-4.94321e-53
2.12481e-53
-2.75099e-54
1.18105e-54
-1.48679e-55
6.377e-56
-7.84158e-57
3.36023e-57
-4.00981e-58
1.72765e-58
-1.95934e-59
8.65898e-60
-3.63829e-60
1.53466e-61
-2.16804e-60
-1.93243e-61
-2.30951e-61
2.00833e-62
9.40113e-61
1.71423e-61
1.04726e-60
1.25121e-62
-7.31267e-61
-1.6433e-61
-7.65099e-61
-6.5957e-62
8.32675e-61
7.92417e-62
1.01661e-60
7.8828e-62
3.87905e-61
1.64251e-62
-1.50902e-61
1.83818e-63
-3.78329e-62
4.83315e-62
-5.90094e-62
-1.49792e-61
-1.82283e-61
-3.99653e-61
-9.55101e-61
-9.79252e-62
3.49542e-60
2.65008e-61
3.28184e-60
1.08392e-61
1.46894e-60
-4.86733e-62
1.69183e-61
1.83398e-61
2.42569e-60
6.53703e-62
2.24574e-61
-1.35683e-60
5.38421e-38
9.44329e-40
4.8944e-39
7.11573e-40
4.36975e-40
7.59587e-41
3.57835e-41
6.58507e-42
2.86069e-42
5.05491e-43
2.14334e-43
3.72445e-44
1.56283e-44
2.58938e-45
1.08223e-45
1.74976e-46
7.28708e-47
1.1312e-47
4.70095e-48
7.11627e-49
2.94983e-49
4.31237e-50
1.78424e-50
2.54485e-51
1.0507e-51
1.45341e-52
5.99055e-53
8.09161e-54
3.32901e-54
4.37478e-55
1.79705e-55
2.30826e-56
9.46633e-57
1.18594e-57
4.85645e-58
5.95502e-59
2.43402e-59
2.79249e-60
1.17821e-60
4.14788e-62
4.72545e-62
-4.0654e-63