/*--------------------------------*- C++ -*----------------------------------*\
| =========                 |                                                 |
| \\      /  F ield         | OpenFOAM: The Open Source CFD Toolbox           |
|  \\    /   O peration     | Version:  2.4.0                                 |
|   \\  /    A nd           | Web:      www.OpenFOAM.org                      |
|    \\/     M anipulation  |                                                 |
\*---------------------------------------------------------------------------*/
FoamFile
{
    version     2.0;
    format      ascii;
    class       volVectorField;
    location    "0.6";
    object      U;
}
// * * * * * * * * * * * * * * * * * * * * * * * * * * * * * * * * * * * * * //

dimensions      [0 1 -1 0 0 0 0];

internalField   nonuniform List<vector> 
1935
(
(2.48426e-34 6.54718e-39 0)
(3.70165e-35 -2.1242e-35 0)
(6.66468e-36 -3.47781e-36 0)
(8.63215e-37 -2.9911e-36 0)
(-2.58848e-36 -2.46614e-35 0)
(-1.434e-34 -2.78037e-34 0)
(-3.6448e-33 -2.25559e-33 0)
(-6.73694e-32 -2.25683e-32 0)
(-8.35834e-31 -9.36547e-32 0)
(-6.53317e-32 -9.8576e-31 0)
(1.53699e-32 -4.62659e-30 0)
(-2.64612e-33 -5.88371e-29 0)
(-3.90381e-32 1.24898e-30 0)
(-1.71598e-33 6.01974e-29 0)
(1.94736e-32 4.76129e-30 0)
(2.08803e-33 1.03219e-30 0)
(-5.56895e-36 1.88242e-31 0)
(-2.01398e-33 1.03672e-30 0)
(-1.91933e-32 4.05036e-30 0)
(2.79416e-32 6.11995e-29 0)
(6.73985e-32 -7.70939e-29 0)
(-2.28278e-32 -1.4415e-28 0)
(-6.80734e-32 -7.89484e-30 0)
(2.42375e-32 6.29441e-29 0)
(6.88283e-32 -8.11236e-29 0)
(-4.69322e-32 -1.48723e-28 0)
(-5.05289e-32 6.41901e-29 0)
(1.41852e-32 2.2688e-30 0)
(-9.18797e-32 6.48758e-31 0)
(-1.17291e-30 -7.38762e-30 0)
(-9.70035e-32 -8.08377e-29 0)
(-3.13133e-32 -6.4076e-30 0)
(-3.02529e-33 -1.36307e-30 0)
(-3.6341e-34 -1.29751e-31 0)
(2.71464e-37 -3.35889e-32 0)
(3.63484e-34 -1.23227e-31 0)
(2.68762e-33 -1.35081e-30 0)
(2.53195e-32 -5.34761e-30 0)
(-3.65887e-32 -8.06948e-29 0)
(-8.8965e-32 1.00923e-28 0)
(2.69681e-32 1.90597e-28 0)
(6.23537e-32 1.60886e-29 0)
(6.5542e-33 3.56199e-30 0)
(2.19896e-33 -7.30691e-39 0)
(1.93456e-32 -8.65227e-39 0)
(1.31653e-31 -1.87364e-39 0)
(1.071e-30 -3.94872e-40 0)
(3.19822e-34 -2.16235e-34 0)
(2.66816e-33 -1.81482e-33 0)
(1.75295e-32 -1.55316e-32 0)
(1.2725e-31 -9.59385e-32 0)
(5.42538e-35 -3.23309e-35 0)
(4.22669e-34 -2.65208e-34 0)
(2.44042e-33 -2.14459e-33 0)
(1.52125e-32 -1.26817e-32 0)
(6.008e-36 -4.40509e-36 0)
(4.29308e-35 -4.39048e-35 0)
(2.31211e-34 -3.51355e-34 0)
(1.27963e-33 -1.92631e-33 0)
(-1.06929e-36 1.33809e-35 0)
(2.16981e-36 1.34641e-35 0)
(2.14773e-35 -3.26959e-35 0)
(1.20919e-34 -1.90153e-34 0)
(-1.31e-34 1.51057e-34 0)
(-4.46147e-35 1.97474e-34 0)
(-2.23343e-35 3.3542e-35 0)
(5.2649e-36 -1.34152e-35 0)
(-3.47303e-33 9.95681e-34 0)
(-8.08307e-34 1.36283e-33 0)
(-2.92106e-34 2.4713e-34 0)
(-4.71804e-35 4.00993e-35 0)
(-6.53852e-32 8.63311e-33 0)
(-1.10054e-32 1.19346e-32 0)
(-2.47339e-33 1.86591e-33 0)
(-3.47779e-34 3.01503e-34 0)
(-8.15625e-31 -1.6374e-32 0)
(-9.72799e-32 -2.67755e-33 0)
(-2.07265e-32 -3.20531e-34 0)
(-2.60246e-33 -3.82096e-35 0)
(2.42846e-32 -1.64158e-31 0)
(5.11479e-33 -3.45462e-32 0)
(3.41842e-34 -4.29728e-33 0)
(2.61181e-36 -5.71543e-34 0)
(8.09935e-31 -6.83499e-31 0)
(1.23307e-31 -6.05797e-32 0)
(2.04392e-32 -3.87801e-33 0)
(2.384e-33 -1.89299e-34 0)
(-1.1031e-31 -5.98523e-30 0)
(-1.94785e-32 -4.33244e-31 0)
(-3.41434e-33 -2.31874e-32 0)
(-4.25048e-34 -7.16272e-34 0)
(-1.67373e-30 1.324e-31 0)
(-2.56449e-31 1.00144e-32 0)
(-4.2967e-32 5.69942e-34 0)
(-5.05546e-33 2.20851e-35 0)
(-7.63967e-32 6.13406e-30 0)
(-1.42093e-32 4.44719e-31 0)
(-2.51235e-33 2.38475e-32 0)
(-3.16873e-34 7.41057e-34 0)
(8.33225e-31 7.02403e-31 0)
(1.27257e-31 6.13498e-32 0)
(2.12639e-32 3.80835e-33 0)
(2.4956e-33 1.62351e-34 0)
(9.19623e-32 1.59285e-31 0)
(1.65378e-32 2.31712e-32 0)
(2.89032e-33 2.49281e-33 0)
(3.59984e-34 2.76808e-34 0)
(-1.42578e-34 3.28122e-32 0)
(-5.77896e-36 5.30182e-33 0)
(2.24856e-36 6.29182e-34 0)
(7.07884e-37 7.43215e-35 0)
(-8.66963e-32 1.57172e-31 0)
(-1.54458e-32 2.23729e-32 0)
(-2.64407e-33 2.354e-33 0)
(-3.24721e-34 2.56855e-34 0)
(-8.15456e-31 5.86086e-31 0)
(-1.20899e-31 3.86565e-32 0)
(-1.99626e-32 9.57194e-34 0)
(-2.30813e-33 -1.91998e-34 0)
(1.20441e-30 5.90704e-30 0)
(1.90356e-31 4.00768e-31 0)
(3.21925e-32 1.92366e-32 0)
(3.83652e-33 2.84647e-34 0)
(2.88806e-30 -8.1668e-30 0)
(4.42038e-31 -6.1735e-31 0)
(7.39995e-32 -3.51341e-32 0)
(8.69992e-33 -1.37129e-33 0)
(-9.76208e-31 -1.49468e-29 0)
(-1.49061e-31 -1.09841e-30 0)
(-2.48916e-32 -5.98619e-32 0)
(-2.91982e-33 -1.97045e-33 0)
(-2.91242e-30 -1.18718e-30 0)
(-4.44469e-31 -1.28623e-31 0)
(-7.42541e-32 -1.08504e-32 0)
(-8.71223e-33 -9.25006e-34 0)
(1.03557e-30 5.93986e-30 0)
(1.58001e-31 3.7481e-31 0)
(2.63572e-32 1.48441e-32 0)
(3.08935e-33 -3.27276e-34 0)
(2.94317e-30 -8.55432e-30 0)
(4.46611e-31 -6.37872e-31 0)
(7.45117e-32 -3.54362e-32 0)
(8.72316e-33 -1.25058e-33 0)
(-2.00922e-30 -1.52083e-29 0)
(-3.04861e-31 -1.11657e-30 0)
(-5.09334e-32 -6.1426e-32 0)
(-5.96855e-33 -2.15905e-33 0)
(-2.15908e-30 5.99172e-30 0)
(-3.33452e-31 4.07045e-31 0)
(-5.59794e-32 2.03723e-32 0)
(-6.60697e-33 4.99308e-34 0)
(8.20846e-31 3.68089e-31 0)
(1.19253e-31 1.1035e-32 0)
(1.94404e-32 -1.83284e-33 0)
(2.2164e-33 -4.83932e-34 0)
(1.13424e-31 5.40721e-32 0)
(2.12904e-32 1.55142e-32 0)
(2.84569e-33 2.07306e-33 0)
(2.90703e-34 3.32861e-34 0)
(-4.40577e-32 -1.03898e-30 0)
(3.2725e-32 -8.97056e-32 0)
(-9.01001e-34 -5.58292e-33 0)
(-3.44819e-34 -2.46818e-34 0)
(-1.08769e-31 -8.32109e-30 0)
(-1.80659e-32 -6.34378e-31 0)
(-3.93236e-33 -3.73827e-32 0)
(-5.44365e-34 -1.76771e-33 0)
(-1.12343e-30 -9.50507e-31 0)
(-1.7257e-31 -8.64397e-32 0)
(-2.91391e-32 -5.79687e-33 0)
(-3.44825e-33 -3.23419e-34 0)
(-1.24898e-31 -2.10627e-31 0)
(-2.25525e-32 -3.08948e-32 0)
(-3.98057e-33 -3.34749e-33 0)
(-4.99447e-34 -3.75633e-34 0)
(-1.7757e-32 -2.27634e-32 0)
(-3.32433e-33 -3.76635e-33 0)
(-6.36294e-34 -4.55067e-34 0)
(-8.37196e-35 -5.48453e-35 0)
(-1.80478e-35 -6.0375e-33 0)
(-5.11353e-36 -1.11732e-33 0)
(-1.7388e-36 -1.44553e-34 0)
(-3.04472e-37 -1.85538e-35 0)
(1.77462e-32 -2.14353e-32 0)
(3.28898e-33 -3.4286e-33 0)
(6.21906e-34 -4.03958e-34 0)
(8.09864e-35 -4.73602e-35 0)
(1.16022e-31 -2.04345e-31 0)
(2.07058e-32 -2.89647e-32 0)
(3.55423e-33 -3.03467e-33 0)
(4.37451e-34 -3.29795e-34 0)
(1.0758e-30 -7.73808e-31 0)
(1.59539e-31 -5.11338e-32 0)
(2.63456e-32 -1.27955e-33 0)
(3.04656e-33 2.51271e-34 0)
(-1.57748e-30 -7.79096e-30 0)
(-2.49413e-31 -5.28536e-31 0)
(-4.21912e-32 -2.53501e-32 0)
(-5.02948e-33 -3.70923e-34 0)
(-3.81457e-30 1.06999e-29 0)
(-5.84467e-31 8.10718e-31 0)
(-9.79206e-32 4.63563e-32 0)
(-1.15208e-32 1.84214e-33 0)
(1.15192e-30 1.983e-29 0)
(1.72671e-31 1.47203e-30 0)
(2.87285e-32 8.17686e-32 0)
(3.34761e-33 2.93557e-33 0)
(2.67438e-30 2.38878e-30 0)
(4.12855e-31 2.24468e-31 0)
(6.9298e-32 1.57532e-32 0)
(8.17711e-33 9.64503e-34 0)
(2.84299e-31 5.57968e-31 0)
(5.15113e-32 7.80546e-32 0)
(9.10639e-33 8.15352e-33 0)
(1.14569e-33 8.74577e-34 0)
(5.00703e-30 -7.73959e-41 0)
(5.04644e-29 -2.56925e-41 0)
(4.63966e-29 4.80073e-41 0)
(-4.62748e-29 4.80857e-41 0)
(-4.94515e-29 -2.28379e-41 0)
(1.07382e-31 -5.12489e-41 0)
(5.04771e-29 -2.63473e-41 0)
(5.13684e-29 2.22977e-41 0)
(5.07821e-30 2.58552e-41 0)
(1.01009e-30 3.56335e-42 0)
(1.07211e-31 5.51288e-43 0)
(1.38584e-32 -1.16434e-44 0)
(-1.24734e-33 -9.9713e-43 0)
(-2.67502e-32 -1.36071e-41 0)
(-2.00451e-31 -1.7817e-40 0)
(-1.91416e-30 -2.0433e-39 0)
(-9.1588e-30 -1.93741e-38 0)
(-9.77493e-29 -2.32586e-38 0)
(-5.04628e-29 4.73811e-36 0)
(4.63835e-29 1.68397e-34 0)
(5.45568e-29 3.70524e-33 0)
(5.23703e-29 6.06283e-32 0)
(6.18276e-30 6.7766e-31 0)
(6.12321e-30 6.06331e-32 0)
(5.15838e-29 3.8689e-33 0)
(5.1488e-29 3.70524e-33 0)
(5.0865e-30 5.69279e-32 0)
(1.02009e-30 6.17031e-31 0)
(1.18353e-31 -6.17031e-31 0)
(3.51904e-32 -5.69183e-32 0)
(2.14326e-31 -3.36424e-33 0)
(2.01234e-30 3.63464e-33 0)
(1.01109e-29 6.21514e-32 0)
(1.02124e-28 6.94852e-31 0)
(9.96554e-29 6.58567e-32 0)
(-3.31377e-29 6.44218e-32 0)
(4.33134e-29 6.77667e-31 0)
(-4.86845e-30 5.70867e-32 0)
(-9.36557e-29 -5.33584e-32 0)
(-8.39075e-30 -6.17257e-31 0)
(5.66449e-31 -6.81945e-31 0)
(4.05195e-30 -5.29393e-31 0)
(3.59547e-30 1.31156e-30 0)
(-3.57916e-30 1.30007e-30 0)
(-3.93147e-30 -6.17979e-31 0)
(1.43249e-32 -1.37695e-30 0)
(4.0537e-30 -7.05176e-31 0)
(4.15791e-30 6.05348e-31 0)
(5.76615e-31 6.93582e-31 0)
(1.20078e-31 8.83485e-32 0)
(1.42993e-32 1.2757e-32 0)
(1.90615e-33 1.3087e-33 0)
(-1.80952e-34 3.9752e-34 0)
(-3.67307e-33 2.44737e-33 0)
(-2.66759e-32 2.42364e-32 0)
(-2.2603e-31 1.64064e-31 0)
(-1.03486e-30 1.29994e-30 0)
(-7.7512e-30 5.28333e-31 0)
(-4.05175e-30 -1.94243e-30 0)
(3.59352e-30 -1.46669e-30 0)
(4.51081e-30 -1.00749e-31 0)
(4.26889e-30 6.75792e-31 0)
(7.09246e-31 6.77303e-31 0)
(7.09447e-31 -5.97727e-31 0)
(4.18751e-30 -6.04436e-31 0)
(4.1732e-30 6.19902e-31 0)
(5.70825e-31 7.01997e-31 0)
(1.29443e-31 1.41578e-31 0)
(2.38255e-32 -4.06105e-32 0)
(-2.12854e-33 -8.27421e-33 0)
(2.7555e-32 -2.5698e-32 0)
(2.3779e-31 -1.72156e-31 0)
(1.13784e-30 -1.31709e-30 0)
(8.24836e-30 -4.75712e-31 0)
(7.98466e-30 1.84216e-30 0)
(-2.10646e-30 8.06372e-31 0)
(3.25588e-30 -2.26358e-31 0)
(-5.39736e-31 1.80978e-30 0)
(-7.28319e-30 7.56198e-32 0)
(-9.37281e-31 -1.05913e-30 0)
(4.16836e-32 -7.77165e-32 0)
(2.13824e-31 -5.76149e-32 0)
(1.85418e-31 1.48667e-31 0)
(-1.83091e-31 1.47092e-31 0)
(-1.99138e-31 -6.9357e-32 0)
(2.00814e-33 -1.57231e-31 0)
(2.14085e-31 -8.09015e-32 0)
(2.26436e-31 6.76152e-32 0)
(4.3002e-32 7.93106e-32 0)
(1.46014e-32 1.17124e-32 0)
(2.00351e-33 1.76072e-33 0)
(3.03717e-34 1.91629e-34 0)
(-3.06029e-35 5.94934e-35 0)
(-5.84316e-34 3.57633e-34 0)
(-3.70037e-33 3.33462e-33 0)
(-2.72287e-32 2.16825e-32 0)
(-7.1672e-32 1.47073e-31 0)
(-4.115e-31 5.74549e-32 0)
(-2.13772e-31 -2.19804e-31 0)
(1.8511e-31 -1.69135e-31 0)
(2.42605e-31 -1.33136e-32 0)
(2.39987e-31 7.73367e-32 0)
(5.933e-32 8.08486e-32 0)
(5.92354e-32 -6.60815e-32 0)
(2.30576e-31 -6.73614e-32 0)
(2.28619e-31 6.97467e-32 0)
(4.24521e-32 8.08528e-32 0)
(1.56975e-32 2.18955e-32 0)
(3.12529e-33 -8.44277e-33 0)
(1.77561e-35 -1.51787e-33 0)
(3.71459e-33 -3.62805e-33 0)
(2.78222e-32 -2.2686e-32 0)
(7.5836e-32 -1.49745e-31 0)
(4.45551e-31 -6.78492e-32 0)
(4.47934e-31 2.06292e-31 0)
(-8.43124e-32 9.49972e-32 0)
(1.71238e-31 -1.38862e-32 0)
(-3.84232e-32 2.02837e-31 0)
(-3.84668e-31 9.75604e-33 0)
(-7.79658e-32 -1.18614e-31 0)
(2.32715e-33 -1.11915e-32 0)
(7.94565e-33 -8.20359e-33 0)
(6.73723e-33 2.14454e-32 0)
(-6.51312e-33 2.11877e-32 0)
(-6.69332e-33 -9.98142e-33 0)
(1.91451e-34 -2.27022e-32 0)
(7.97149e-33 -1.17243e-32 0)
(8.99815e-33 9.69528e-33 0)
(2.44981e-33 1.14639e-32 0)
(1.2426e-33 1.77168e-33 0)
(1.90937e-34 2.89575e-34 0)
(3.10088e-35 3.31642e-35 0)
(-3.27489e-36 1.07863e-35 0)
(-5.95708e-35 6.165e-35 0)
(-3.50543e-34 5.46882e-34 0)
(-2.29739e-33 3.25713e-33 0)
(-3.68435e-33 2.11842e-32 0)
(-1.56991e-32 8.17694e-33 0)
(-7.9396e-33 -3.17197e-32 0)
(6.70453e-33 -2.45078e-32 0)
(9.18445e-33 -2.04357e-33 0)
(1.00964e-32 1.10555e-32 0)
(3.85518e-33 1.10871e-32 0)
(3.89591e-33 -9.52703e-33 0)
(9.39881e-33 -9.66122e-33 0)
(9.20372e-33 1.00393e-32 0)
(2.36323e-33 1.16433e-32 0)
(1.3919e-33 2.74828e-33 0)
(3.42876e-34 -6.9057e-34 0)
(-2.96848e-35 -1.7359e-34 0)
(3.40328e-34 -5.76378e-34 0)
(2.30613e-33 -3.32182e-33 0)
(3.75031e-33 -2.11875e-32 0)
(1.74408e-32 -6.70734e-33 0)
(1.90545e-32 3.00853e-32 0)
(-1.73972e-33 1.39054e-32 0)
(6.74035e-33 -2.23996e-33 0)
(-1.98186e-33 2.91864e-32 0)
(-1.47356e-32 1.66674e-33 0)
(-5.12539e-33 -1.64363e-32 0)
(1.30646e-34 -1.03875e-33 0)
(8.00197e-35 -7.45696e-34 0)
(5.56777e-35 1.98918e-33 0)
(-3.2374e-35 1.96261e-33 0)
(4.01346e-35 -9.21836e-34 0)
(1.97058e-35 -2.11157e-33 0)
(8.27766e-35 -1.09419e-33 0)
(1.79398e-34 8.92214e-34 0)
(1.43143e-34 1.06733e-33 0)
(1.1899e-34 1.75455e-34 0)
(1.96454e-35 3.00039e-35 0)
(3.40041e-36 3.58821e-36 0)
(-3.7069e-37 1.19803e-36 0)
(-6.52692e-36 6.65367e-36 0)
(-3.58528e-35 5.65214e-35 0)
(-2.18688e-34 3.21278e-34 0)
(-1.70278e-34 1.96223e-33 0)
(-2.31065e-34 7.42835e-34 0)
(-7.92695e-35 -2.94137e-33 0)
(5.21141e-35 -2.29058e-33 0)
(1.07784e-34 -2.0258e-34 0)
(2.84929e-34 1.02952e-33 0)
(2.78698e-34 1.06222e-33 0)
(2.82075e-34 -8.70277e-34 0)
(2.20537e-34 -8.8741e-34 0)
(2.00838e-34 9.29081e-34 0)
(1.358e-34 1.08949e-33 0)
(1.33016e-34 2.98166e-34 0)
(3.39541e-35 -9.30907e-35 0)
(-1.24797e-36 -2.14284e-35 0)
(3.38171e-35 -5.9953e-35 0)
(2.13182e-34 -3.23608e-34 0)
(1.31646e-34 -1.94522e-33 0)
(3.09963e-34 -5.50215e-34 0)
(5.9591e-34 2.79907e-33 0)
(1.57957e-34 1.32116e-33 0)
(1.47909e-34 -1.25142e-34 0)
(-9.83809e-35 2.69981e-33 0)
(-2.43005e-34 1.69016e-34 0)
(-3.76734e-34 -1.52377e-33 0)
(6.65585e-36 -1.06089e-34 0)
(-1.48559e-35 -7.60809e-35 0)
(-1.36477e-35 2.04996e-34 0)
(1.5642e-35 2.0205e-34 0)
(2.45207e-35 -9.48548e-35 0)
(1.68614e-36 -2.17718e-34 0)
(-1.45229e-35 -1.131e-34 0)
(-6.79473e-36 9.15705e-35 0)
(8.50273e-36 1.10129e-34 0)
(9.64863e-36 1.85983e-35 0)
(1.68051e-36 3.3291e-36 0)
(3.01539e-37 4.10193e-37 0)
(-3.3773e-38 1.4055e-37 0)
(-5.78314e-37 7.58789e-37 0)
(-3.05599e-36 6.26017e-36 0)
(-1.76488e-35 3.39111e-35 0)
(-7.62025e-36 2.02004e-34 0)
(2.07893e-35 7.58514e-35 0)
(1.48335e-35 -3.03211e-34 0)
(-1.39605e-35 -2.36726e-34 0)
(-1.56259e-35 -2.16437e-35 0)
(1.49356e-36 1.05624e-34 0)
(1.95593e-35 1.07612e-34 0)
(2.00851e-35 -8.94481e-35 0)
(-3.24442e-36 -9.10646e-35 0)
(-4.97172e-36 9.564e-35 0)
(7.71938e-36 1.12321e-34 0)
(1.1061e-35 2.97221e-35 0)
(3.11753e-36 -7.83803e-36 0)
(-2.52783e-37 -2.0912e-36 0)
(2.7931e-36 -6.49301e-36 0)
(1.68629e-35 -3.32225e-35 0)
(2.67502e-36 -1.95941e-34 0)
(-1.72742e-35 -2.89925e-35 0)
(1.04652e-35 2.92471e-34 0)
(2.18796e-35 1.38061e-34 0)
(-3.01691e-36 -1.25644e-35 0)
(-4.52215e-36 2.7803e-34 0)
(1.64592e-35 1.90114e-35 0)
(-2.70103e-35 -1.54413e-34 0)
(-7.12227e-36 -4.1508e-36 0)
(-2.91546e-36 -5.77342e-36 0)
(-1.92801e-36 1.71713e-35 0)
(1.99791e-36 1.68667e-35 0)
(2.88213e-36 -7.90374e-36 0)
(1.48317e-37 -1.82135e-35 0)
(-2.0251e-36 -9.4833e-36 0)
(-1.36836e-36 7.61133e-36 0)
(6.0765e-37 9.2191e-36 0)
(8.26228e-37 1.61148e-36 0)
(1.47864e-37 2.96944e-37 0)
(2.72822e-38 3.75925e-38 0)
(-3.10864e-39 1.31092e-38 0)
(-5.23e-38 6.94163e-38 0)
(-2.6812e-37 5.57447e-37 0)
(-1.50754e-36 2.93006e-36 0)
(-4.1284e-37 1.68581e-35 0)
(3.2308e-36 6.25552e-36 0)
(2.05324e-36 -2.53281e-35 0)
(-1.85917e-36 -1.98617e-35 0)
(-2.23892e-36 -1.87628e-36 0)
(-6.55856e-37 8.84619e-36 0)
(1.55712e-36 9.191e-36 0)
(1.59946e-36 -7.39314e-36 0)
(-1.05635e-36 -7.55779e-36 0)
(-1.20681e-36 7.98233e-36 0)
(5.45305e-37 9.43746e-36 0)
(9.44758e-37 2.72525e-36 0)
(2.68544e-37 -8.20764e-37 0)
(-1.53529e-38 -2.07933e-37 0)
(2.3798e-37 -5.77264e-37 0)
(1.40365e-36 -2.81782e-36 0)
(-2.23295e-37 -1.61025e-35 0)
(-3.04022e-36 -1.17516e-36 0)
(-3.45151e-37 2.46429e-35 0)
(2.22234e-36 1.17435e-35 0)
(-7.94471e-37 -5.93164e-37 0)
(-2.69514e-37 2.32085e-35 0)
(2.7178e-36 1.67861e-36 0)
(-2.16349e-36 -1.29214e-35 0)
(-4.79673e-35 3.17679e-35 0)
(-5.29399e-36 2.85402e-36 0)
(-7.00597e-37 1.79544e-36 0)
(1.17742e-37 1.49209e-36 0)
(2.33625e-37 -6.83866e-37 0)
(1.11855e-38 -1.58343e-36 0)
(-1.72964e-37 -8.25887e-37 0)
(-1.2334e-37 6.59554e-37 0)
(4.28613e-38 8.01954e-37 0)
(6.28385e-38 1.42748e-37 0)
(1.15328e-38 2.69687e-38 0)
(2.16709e-39 3.47652e-39 0)
(-2.50998e-40 1.23049e-39 0)
(-4.15227e-39 6.41e-39 0)
(-2.0872e-38 5.05701e-38 0)
(-1.14382e-37 2.58907e-37 0)
(-2.47673e-38 1.46405e-36 0)
(2.80738e-37 5.39952e-37 0)
(1.75166e-37 -2.20155e-36 0)
(-1.5717e-37 -1.72977e-36 0)
(-1.9269e-37 -1.66895e-37 0)
(-7.02761e-38 7.67119e-37 0)
(1.15279e-37 7.934e-37 0)
(1.19588e-37 -6.40711e-37 0)
(-9.88581e-38 -6.54734e-37 0)
(-1.10794e-37 6.93225e-37 0)
(3.73327e-38 8.20954e-37 0)
(7.30048e-38 2.35352e-37 0)
(2.18645e-38 -6.59915e-38 0)
(-1.86599e-39 -1.79084e-38 0)
(1.79438e-38 -5.13942e-38 0)
(1.0429e-37 -2.41923e-37 0)
(-3.41553e-38 -1.36601e-36 0)
(-2.68897e-37 8.51994e-38 0)
(-5.12355e-38 2.17244e-36 0)
(1.76202e-37 1.03344e-36 0)
(-7.23187e-38 -4.49223e-38 0)
(-1.57144e-38 2.01614e-36 0)
(2.38625e-37 1.53342e-37 0)
(-1.61729e-37 -1.11288e-36 0)
(-3.46683e-34 -3.69659e-36 0)
(-3.50801e-35 -3.68702e-37 0)
(-3.66282e-36 8.64876e-38 0)
(-3.17337e-37 1.09655e-37 0)
(-1.10294e-38 -5.25293e-38 0)
(-1.54376e-39 -1.21175e-37 0)
(-1.39514e-38 -6.32889e-38 0)
(-9.98078e-39 5.02455e-38 0)
(3.18999e-39 6.1385e-38 0)
(4.82103e-39 1.11678e-38 0)
(8.97659e-40 2.14734e-39 0)
(1.71142e-40 2.81652e-40 0)
(-2.00395e-41 1.00811e-40 0)
(-3.2782e-40 5.18691e-40 0)
(-1.62205e-39 4.02207e-39 0)
(-8.7635e-39 2.02194e-38 0)
(-1.70946e-39 1.11836e-37 0)
(2.24418e-38 4.09153e-38 0)
(1.39311e-38 -1.68283e-37 0)
(-1.24572e-38 -1.32602e-37 0)
(-1.53659e-38 -1.30551e-38 0)
(-5.89137e-39 5.87596e-38 0)
(8.75571e-39 6.1616e-38 0)
(9.08321e-39 -4.85971e-38 0)
(-8.06072e-39 -4.98183e-38 0)
(-8.98654e-39 5.29678e-38 0)
(2.77884e-39 6.30144e-38 0)
(5.59873e-39 1.91139e-38 0)
(1.68777e-39 -5.82696e-39 0)
(-1.29033e-40 -1.53226e-39 0)
(1.35087e-39 -4.06256e-39 0)
(7.7866e-39 -1.847e-38 0)
(-3.88753e-39 -1.02339e-37 0)
(-2.15988e-38 1.66069e-38 0)
(-3.76973e-39 1.67907e-37 0)
(1.38541e-38 8.01679e-38 0)
(-5.80581e-39 -1.30617e-39 0)
(-1.10809e-39 1.54079e-37 0)
(1.90875e-38 1.21352e-38 0)
(-1.22831e-38 -8.52348e-38 0)
(-8.51557e-36 -5.68613e-35 0)
(-1.40905e-36 -5.52738e-36 0)
(-2.0702e-37 -4.71377e-37 0)
(-2.1569e-38 -3.28801e-38 0)
(-1.02476e-39 -7.32428e-39 0)
(-1.49984e-40 -9.57983e-39 0)
(-9.96189e-40 -4.89362e-39 0)
(-7.13545e-40 3.85446e-39 0)
(2.211e-40 4.72427e-39 0)
(3.39211e-40 8.70823e-40 0)
(6.41561e-41 1.69884e-40 0)
(1.23631e-41 2.25487e-41 0)
(-1.46351e-42 8.14395e-42 0)
(-2.36735e-41 4.14863e-41 0)
(-1.15793e-40 3.17956e-40 0)
(-6.15665e-40 1.57429e-39 0)
(-1.13918e-40 8.59654e-39 0)
(1.5968e-39 3.13006e-39 0)
(9.90123e-40 -1.29428e-38 0)
(-8.83555e-40 -1.02146e-38 0)
(-1.09472e-39 -1.02013e-39 0)
(-4.29824e-40 4.51498e-39 0)
(6.13468e-40 4.72985e-39 0)
(6.40861e-40 -3.7271e-39 0)
(-5.75249e-40 -3.82173e-39 0)
(-6.42304e-40 4.07152e-39 0)
(1.89079e-40 4.85175e-39 0)
(3.98507e-40 1.47607e-39 0)
(1.24308e-40 -4.37547e-40 0)
(-1.20861e-41 -1.18832e-40 0)
(9.31924e-41 -3.15698e-40 0)
(5.34299e-40 -1.39568e-39 0)
(-3.40002e-40 -7.67194e-39 0)
(-1.53842e-39 2.33587e-39 0)
(-2.24816e-40 1.30999e-38 0)
(9.81402e-40 6.23627e-39 0)
(-4.09176e-40 -5.32503e-41 0)
(-6.88512e-41 1.1846e-38 0)
(1.36014e-39 9.62495e-40 0)
(-8.65423e-40 -6.5223e-39 0)
(2.59771e-34 -5.65102e-36 0)
(2.34888e-35 -6.94631e-38 0)
(2.09351e-36 5.14593e-39 0)
(1.70481e-37 9.15223e-40 0)
(1.36573e-38 -2.81744e-40 0)
(1.0141e-39 -6.59322e-40 0)
(4.89136e-42 -3.44222e-40 0)
(-4.48224e-41 2.70838e-40 0)
(1.56346e-41 3.33015e-40 0)
(2.36524e-41 6.23114e-41 0)
(4.51651e-42 1.22897e-41 0)
(8.77665e-43 1.65038e-42 0)
(-1.04677e-43 6.00375e-43 0)
(-1.68006e-42 3.03404e-42 0)
(-8.14145e-42 2.29837e-41 0)
(-4.28455e-41 1.12519e-40 0)
(-7.72448e-42 6.05086e-40 0)
(1.11602e-40 2.19036e-40 0)
(6.91842e-41 -9.11426e-40 0)
(-6.16643e-41 -7.20789e-40 0)
(-7.65696e-41 -7.29564e-41 0)
(-3.02286e-41 3.18524e-40 0)
(4.26552e-41 3.37107e-40 0)
(4.45978e-41 -2.60909e-40 0)
(-4.02187e-41 -2.68218e-40 0)
(-4.49402e-41 2.86657e-40 0)
(1.3062e-41 3.42746e-40 0)
(2.78012e-41 1.08477e-40 0)
(8.74362e-42 -3.40313e-41 0)
(-8.4371e-43 -9.05101e-42 0)
(6.32682e-42 -2.26116e-41 0)
(3.61709e-41 -9.71918e-41 0)
(-2.90273e-41 -5.27876e-40 0)
(-1.07534e-40 2.25061e-40 0)
(-1.09523e-41 9.34023e-40 0)
(6.91886e-41 4.44783e-40 0)
(-2.82776e-41 4.91067e-42 0)
(-4.60909e-42 8.3416e-40 0)
(9.49903e-41 6.93445e-41 0)
(-6.01814e-41 -4.60199e-40 0)
(-4.81975e-35 1.77199e-35 0)
(-4.54591e-36 4.76959e-36 0)
(-4.18531e-37 4.79607e-37 0)
(-3.51946e-38 4.09066e-38 0)
(-2.87538e-39 3.097e-39 0)
(-2.20202e-40 1.82914e-40 0)
(-2.08526e-41 -8.14441e-42 0)
(-4.41683e-42 1.99184e-41 0)
(9.13266e-43 2.32963e-41 0)
(1.53768e-42 4.39359e-42 0)
(2.97779e-43 8.73624e-43 0)
(5.83086e-44 1.18274e-43 0)
(-7.01265e-45 4.32638e-44 0)
(-1.11638e-43 2.17271e-43 0)
(-5.37128e-43 1.63243e-42 0)
(-2.79423e-42 7.91852e-42 0)
(-4.92202e-43 4.21632e-41 0)
(7.2914e-42 1.52042e-41 0)
(4.52064e-42 -6.35331e-41 0)
(-4.02476e-42 -5.03095e-41 0)
(-5.01092e-42 -5.14378e-42 0)
(-1.9966e-42 2.22011e-41 0)
(2.78089e-42 2.35179e-41 0)
(2.92348e-42 -1.81386e-41 0)
(-2.62311e-42 -1.86584e-41 0)
(-2.93832e-42 1.99751e-41 0)
(8.3489e-43 2.39212e-41 0)
(1.83176e-42 7.62879e-42 0)
(5.90667e-43 -2.3769e-42 0)
(-6.68562e-44 -6.41172e-43 0)
(4.02135e-43 -1.57961e-42 0)
(2.29693e-42 -6.62772e-42 0)
(-2.20003e-42 -3.58036e-41 0)
(-7.02443e-42 2.08183e-41 0)
(-4.34219e-43 6.60558e-41 0)
(4.54601e-42 3.13369e-41 0)
(-1.82363e-42 5.87276e-43 0)
(-2.72605e-43 5.81343e-41 0)
(6.21155e-42 4.9331e-42 0)
(-3.94116e-42 -3.19955e-41 0)
(-5.57198e-34 1.3324e-37 0)
(-5.08593e-35 -6.3433e-38 0)
(-4.58365e-36 -7.44569e-39 0)
(-3.76747e-37 -6.69013e-40 0)
(-3.0314e-38 -5.42244e-41 0)
(-2.27884e-39 -6.99012e-42 0)
(-1.67246e-40 -1.85353e-42 0)
(-1.1805e-41 1.20923e-42 0)
(-7.20321e-43 1.51677e-42 0)
(4.82489e-44 2.89926e-43 0)
(1.60778e-44 5.81004e-44 0)
(3.5965e-45 7.9323e-45 0)
(-4.69539e-46 2.9154e-45 0)
(-7.25301e-45 1.45665e-44 0)
(-3.4696e-44 1.08547e-43 0)
(-1.79035e-43 5.2281e-43 0)
(-3.1044e-44 2.75266e-42 0)
(4.67622e-43 9.88237e-43 0)
(2.89961e-43 -4.14912e-42 0)
(-2.57942e-43 -3.29068e-42 0)
(-3.21679e-43 -3.39607e-43 0)
(-1.28537e-43 1.45233e-42 0)
(1.78153e-43 1.55079e-42 0)
(1.87571e-43 -1.17897e-42 0)
(-1.68043e-43 -1.21538e-42 0)
(-1.88476e-43 1.30438e-42 0)
(5.3122e-44 1.56622e-42 0)
(1.17767e-43 5.14471e-43 0)
(3.83225e-44 -1.67052e-43 0)
(-4.47975e-45 -4.43817e-44 0)
(2.49904e-44 -1.03837e-43 0)
(1.42816e-43 -4.25007e-43 0)
(-1.63131e-43 -2.27785e-42 0)
(-4.5041e-43 1.65483e-42 0)
(-6.60955e-45 4.3715e-42 0)
(2.9479e-43 2.07013e-42 0)
(-1.1552e-43 6.96754e-44 0)
(-1.66902e-44 3.7967e-42 0)
(3.98236e-43 3.27253e-43 0)
(-2.52728e-43 -2.09364e-42 0)
(-3.59786e-35 -1.77615e-35 0)
(-3.40653e-36 -4.87671e-36 0)
(-3.13293e-37 -4.92107e-37 0)
(-2.63569e-38 -4.2065e-38 0)
(-2.15281e-39 -3.21722e-39 0)
(-1.64505e-40 -2.37002e-40 0)
(-1.22113e-41 -1.65631e-41 0)
(-8.70092e-43 -1.03377e-42 0)
(-5.46439e-44 2.54944e-44 0)
(2.20997e-45 1.42303e-44 0)
(9.41933e-46 3.50414e-45 0)
(2.19086e-46 5.02738e-46 0)
(-2.93108e-47 1.9046e-46 0)
(-4.47532e-46 9.52456e-46 0)
(-2.13137e-45 7.05553e-45 0)
(-1.09012e-44 3.37921e-44 0)
(-1.85803e-45 1.76521e-43 0)
(2.84935e-44 6.31736e-44 0)
(1.76714e-44 -2.66138e-43 0)
(-1.5707e-44 -2.11305e-43 0)
(-1.9629e-44 -2.19677e-44 0)
(-7.89696e-45 9.31969e-44 0)
(1.08463e-44 9.97111e-44 0)
(1.14717e-44 -7.5431e-44 0)
(-1.02214e-44 -7.78272e-44 0)
(-1.14895e-44 8.36495e-44 0)
(3.18128e-45 1.00592e-43 0)
(7.23145e-45 3.33656e-44 0)
(2.39927e-45 -1.08751e-44 0)
(-3.14584e-46 -2.90302e-45 0)
(1.47356e-45 -6.63821e-45 0)
(8.43941e-45 -2.65634e-44 0)
(-1.11844e-44 -1.4185e-43 0)
(-2.74391e-44 1.27707e-43 0)
(7.87589e-46 2.8452e-43 0)
(1.81109e-44 1.34138e-43 0)
(-6.94869e-45 5.50285e-45 0)
(-9.24621e-46 2.43505e-43 0)
(2.42862e-44 2.12869e-44 0)
(-1.5448e-44 -1.34153e-43 0)
(2.74465e-34 1.9825e-36 0)
(2.50077e-35 -3.54687e-37 0)
(2.2505e-36 -4.54382e-38 0)
(1.84744e-37 -4.14092e-39 0)
(1.48499e-38 -3.26082e-40 0)
(1.11531e-39 -2.43732e-41 0)
(8.16501e-41 -1.72095e-42 0)
(5.66618e-42 -1.12134e-43 0)
(3.83003e-43 -1.68661e-45 0)
(2.51037e-44 6.6993e-46 0)
(1.6277e-45 2.03835e-46 0)
(1.08413e-46 3.04849e-47 0)
(3.8477e-48 1.18226e-47 0)
(-2.66205e-47 5.91465e-47 0)
(-1.27861e-46 4.35553e-46 0)
(-6.49735e-46 2.07696e-45 0)
(-1.09304e-46 1.07564e-44 0)
(1.69917e-45 3.83613e-45 0)
(1.05396e-45 -1.62206e-44 0)
(-9.36179e-46 -1.28947e-44 0)
(-1.17166e-45 -1.34961e-45 0)
(-4.7279e-46 5.68939e-45 0)
(6.46413e-46 6.1269e-45 0)
(6.85e-46 -4.57942e-45 0)
(-6.0885e-46 -4.73386e-45 0)
(-6.85293e-46 5.09817e-45 0)
(1.88103e-46 6.14419e-45 0)
(4.32707e-46 2.08608e-45 0)
(1.44908e-46 -7.02015e-46 0)
(-1.98924e-47 -1.85172e-46 0)
(8.47028e-47 -4.04367e-46 0)
(4.86687e-46 -1.58063e-45 0)
(-7.47906e-46 -8.39624e-45 0)
(-1.636e-45 8.99981e-45 0)
(1.25678e-46 1.75826e-44 0)
(1.09257e-45 8.26297e-45 0)
(-4.09269e-46 4.37113e-46 0)
(-5.20404e-47 1.48424e-44 0)
(1.44834e-45 1.3118e-45 0)
(-9.2215e-46 -8.19281e-45 0)
(4.05852e-35 2.49439e-35 0)
(3.81601e-36 2.183e-36 0)
(3.49349e-37 1.77325e-37 0)
(2.92598e-38 1.41943e-38 0)
(2.38236e-39 1.06434e-39 0)
(1.81487e-40 7.78551e-41 0)
(1.34212e-41 5.40049e-42 0)
(9.41469e-43 3.64946e-43 0)
(6.413e-44 2.39202e-44 0)
(4.20046e-45 1.55132e-45 0)
(2.68841e-46 1.03847e-46 0)
(1.69673e-47 7.2482e-48 0)
(8.59226e-49 1.02543e-48 0)
(-1.49953e-48 3.59521e-48 0)
(-7.35802e-48 2.62323e-47 0)
(-3.71391e-47 1.2467e-46 0)
(-6.16002e-48 6.41509e-46 0)
(9.71725e-47 2.28185e-46 0)
(6.02845e-47 -9.67551e-46 0)
(-5.35119e-47 -7.69884e-46 0)
(-6.70885e-47 -8.1018e-47 0)
(-2.7227e-47 3.3963e-46 0)
(3.69465e-47 3.66685e-46 0)
(3.93063e-47 -2.725e-46 0)
(-3.47664e-47 -2.81974e-46 0)
(-3.9207e-47 3.04067e-46 0)
(1.05959e-47 3.66976e-46 0)
(2.49134e-47 1.25928e-46 0)
(8.47536e-48 -4.27675e-47 0)
(-1.27049e-48 -1.12783e-47 0)
(4.65963e-48 -2.39415e-47 0)
(2.69011e-47 -9.15089e-47 0)
(-4.71907e-47 -4.84917e-46 0)
(-9.35447e-47 6.16248e-46 0)
(1.14595e-47 1.06433e-45 0)
(6.30905e-47 4.97713e-46 0)
(-2.31085e-47 2.97802e-47 0)
(-2.69828e-48 8.85308e-46 0)
(8.28989e-47 7.90233e-47 0)
(-5.29009e-47 -4.88696e-46 0)
(1.23899e-37 7.0345e-36 0)
(1.52179e-38 6.30236e-37 0)
(1.66536e-39 5.22769e-38 0)
(1.59596e-40 4.2331e-39 0)
(1.43213e-41 3.21445e-40 0)
(1.18203e-42 2.37142e-41 0)
(9.28404e-44 1.66063e-42 0)
(6.85716e-45 1.12942e-43 0)
(4.86913e-46 7.37377e-45 0)
(3.39762e-47 4.69316e-46 0)
(2.36694e-48 2.91848e-47 0)
(1.7934e-49 1.79628e-48 0)
(2.45545e-51 1.38639e-49 0)
(-8.70226e-50 2.12899e-49 0)
(-4.1353e-49 1.51465e-48 0)
(-2.07505e-48 7.17925e-48 0)
(-3.40287e-49 3.66903e-47 0)
(5.43122e-48 1.3014e-47 0)
(3.36992e-48 -5.53453e-47 0)
(-2.98969e-48 -4.40836e-47 0)
(-3.75317e-48 -4.66213e-48 0)
(-1.52805e-48 1.9458e-47 0)
(2.06416e-48 2.11248e-47 0)
(2.20073e-48 -1.55354e-47 0)
(-1.9411e-48 -1.61031e-47 0)
(-2.19195e-48 1.73934e-47 0)
(5.86875e-49 2.10313e-47 0)
(1.39781e-48 7.35696e-48 0)
(4.79898e-49 -2.56436e-48 0)
(-7.5543e-50 -6.6957e-49 0)
(2.49572e-49 -1.36163e-48 0)
(1.44915e-48 -5.08399e-48 0)
(-2.90081e-48 -2.68462e-47 0)
(-5.22771e-48 3.95855e-47 0)
(8.97532e-49 6.17535e-47 0)
(3.5686e-48 2.87578e-47 0)
(-1.27557e-48 2.00235e-48 0)
(-1.40472e-49 5.06463e-47 0)
(4.63488e-48 4.55591e-48 0)
(-2.96159e-48 -2.80118e-47 0)
(-3.60115e-35 2.28106e-35 0)
(-3.35116e-36 1.97896e-36 0)
(-3.03739e-37 1.59587e-37 0)
(-2.52645e-38 1.27148e-38 0)
(-2.04437e-39 9.49056e-40 0)
(-1.55032e-40 6.91918e-41 0)
(-1.14202e-41 4.78366e-42 0)
(-7.98757e-43 3.22139e-43 0)
(-5.42613e-44 2.07638e-44 0)
(-3.53067e-45 1.3032e-45 0)
(-2.23285e-46 7.88169e-47 0)
(-1.36076e-47 4.64553e-48 0)
(-8.07487e-49 2.66802e-49 0)
(-5.10915e-50 2.64169e-50 0)
(-2.50184e-50 8.60491e-50 0)
(-1.12025e-49 4.03513e-49 0)
(-1.81364e-50 2.05095e-48 0)
(2.92944e-49 7.25846e-49 0)
(1.81792e-49 -3.09405e-48 0)
(-1.61192e-49 -2.46648e-48 0)
(-2.0266e-49 -2.6191e-49 0)
(-8.29236e-50 1.08888e-48 0)
(1.11291e-49 1.18557e-48 0)
(1.19071e-49 -8.665e-49 0)
(-1.04559e-49 -8.99154e-49 0)
(-1.18277e-49 9.72318e-49 0)
(3.12251e-50 1.17727e-48 0)
(7.58518e-50 4.16335e-49 0)
(2.63875e-50 -1.46836e-49 0)
(-4.45836e-51 -3.82298e-50 0)
(1.2865e-50 -7.53075e-50 0)
(7.52455e-50 -2.7471e-49 0)
(-1.70281e-49 -1.44838e-48 0)
(-2.81931e-49 2.47181e-48 0)
(6.18589e-50 3.50383e-48 0)
(1.94559e-49 1.62296e-48 0)
(-6.79275e-50 1.23522e-49 0)
(-6.81516e-51 2.83139e-48 0)
(2.5021e-49 2.56481e-49 0)
(-1.60233e-49 -1.56709e-48 0)
(-2.51759e-34 -3.1867e-35 0)
(-2.27279e-35 -3.39873e-36 0)
(-2.03327e-36 -2.9573e-37 0)
(-1.65857e-37 -2.42829e-38 0)
(-1.32725e-38 -1.84153e-39 0)
(-9.92236e-40 -1.35444e-40 0)
(-7.239e-41 -9.43558e-42 0)
(-5.0065e-42 -6.38985e-43 0)
(-3.37231e-43 -4.14156e-44 0)
(-2.17396e-44 -2.61086e-45 0)
(-1.36453e-45 -1.58555e-46 0)
(-8.25049e-47 -9.37338e-48 0)
(-4.85977e-48 -5.36188e-49 0)
(-2.77289e-49 -2.92662e-50 0)
(-1.65861e-50 3.0108e-51 0)
(-6.72616e-51 2.18002e-50 0)
(-9.89478e-52 1.10629e-49 0)
(1.54363e-50 3.90626e-50 0)
(9.58179e-51 -1.66914e-49 0)
(-8.4922e-51 -1.33174e-49 0)
(-1.06898e-50 -1.41937e-50 0)
(-4.38838e-51 5.88333e-50 0)
(5.86338e-51 6.43696e-50 0)
(6.28766e-51 -4.66083e-50 0)
(-5.50479e-51 -4.84419e-50 0)
(-6.23523e-51 5.24559e-50 0)
(1.6301e-51 6.36182e-50 0)
(4.01375e-51 2.28702e-50 0)
(1.40868e-51 -8.24522e-51 0)
(-2.49606e-52 -2.12831e-51 0)
(6.45358e-52 -4.02285e-51 0)
(3.80626e-51 -1.43204e-50 0)
(-9.73834e-51 -7.53291e-50 0)
(-1.48564e-50 1.46938e-49 0)
(4.00888e-51 1.91784e-49 0)
(1.03803e-50 8.8402e-50 0)
(-3.53488e-51 7.46253e-51 0)
(-3.29135e-52 1.52764e-49 0)
(1.31929e-50 1.39137e-50 0)
(-8.46185e-51 -8.47192e-50 0)
(4.25204e-34 -5.51873e-35 0)
(3.90892e-35 -7.96978e-36 0)
(3.53683e-36 -7.36789e-37 0)
(2.9207e-37 -6.14277e-38 0)
(2.35719e-38 -4.66073e-39 0)
(1.77796e-39 -3.42089e-40 0)
(1.30572e-40 -2.3748e-41 0)
(9.09161e-42 -1.60355e-42 0)
(6.15638e-43 -1.03609e-43 0)
(3.98984e-44 -6.51493e-45 0)
(2.51513e-45 -3.9462e-46 0)
(1.52728e-46 -2.32781e-47 0)
(9.02842e-48 -1.32891e-48 0)
(5.16486e-49 -7.39234e-50 0)
(2.87357e-50 -3.75175e-51 0)
(1.25802e-51 9.47968e-52 0)
(3.45618e-53 5.82036e-51 0)
(7.92892e-52 2.05439e-51 0)
(4.89759e-52 -8.79803e-51 0)
(-4.33665e-52 -7.02465e-51 0)
(-5.46622e-52 -7.50984e-52 0)
(-2.2541e-52 3.1047e-51 0)
(2.9944e-52 3.40724e-51 0)
(3.22139e-52 -2.45132e-51 0)
(-2.80872e-52 -2.55073e-51 0)
(-3.18652e-52 2.76493e-51 0)
(8.2225e-53 3.35763e-51 0)
(2.06179e-52 1.22019e-51 0)
(7.31905e-53 -4.45614e-52 0)
(-1.37566e-53 -1.14538e-52 0)
(3.12719e-53 -2.0918e-52 0)
(1.86291e-52 -7.26227e-52 0)
(-5.35978e-52 -3.81669e-51 0)
(-7.58837e-52 8.49788e-51 0)
(2.4244e-52 1.02609e-50 0)
(5.36417e-52 4.70281e-51 0)
(-1.78259e-52 4.25405e-52 0)
(-1.4908e-53 8.05259e-51 0)
(6.7454e-52 7.36997e-52 0)
(-4.33591e-52 -4.47092e-51 0)