/*--------------------------------*- C++ -*----------------------------------*\
| =========                 |                                                 |
| \\      /  F ield         | OpenFOAM: The Open Source CFD Toolbox           |
|  \\    /   O peration     | Version:  2.4.0                                 |
|   \\  /    A nd           | Web:      www.OpenFOAM.org                      |
|    \\/     M anipulation  |                                                 |
\*---------------------------------------------------------------------------*/
FoamFile
{
    version     2.0;
    format      ascii;
    class       surfaceScalarField;
    location    "0.55";
    object      phi;
}
// * * * * * * * * * * * * * * * * * * * * * * * * * * * * * * * * * * * * * //

dimensions      [0 3 -1 0 0 0 0];

internalField   nonuniform List<scalar> 
15214
(
2.39908e-39
4.5516e-41
1.3699e-38
2.96396e-40
1.9199e-38
2.48717e-39
4.99125e-37
1.97168e-39
3.36675e-41
-4.80439e-39
-4.98844e-37
-4.79986e-39
-1.65448e-38
2.02098e-39
2.43795e-39
2.82874e-39
3.07763e-38
3.08489e-39
5.20758e-37
4.55336e-39
5.15477e-37
-2.48258e-39
-4.6354e-37
-6.77606e-39
1.63852e-38
1.97167e-39
5.01806e-37
4.45878e-39
1.94794e-38
-2.02148e-39
1.37349e-38
-2.49227e-39
2.40727e-39
-2.96865e-40
2.47002e-40
-4.47818e-41
3.07113e-41
-4.57287e-42
2.95944e-42
-5.04676e-43
3.02826e-43
-4.6231e-44
2.67397e-44
-4.30246e-45
2.39829e-45
-3.57387e-46
3.86543e-46
-2.71666e-47
2.41246e-45
2.73325e-47
2.69169e-44
3.59458e-46
3.05014e-43
4.32961e-45
2.98377e-42
4.65588e-44
3.0987e-41
5.08616e-43
2.49654e-40
4.61474e-42
2.43496e-39
4.52396e-41
1.39506e-38
3.00924e-40
2.16337e-38
2.53239e-39
5.13072e-37
2.27255e-39
2.16337e-38
-2.27255e-39
1.39506e-38
-2.53239e-39
2.43496e-39
-3.00924e-40
2.49654e-40
-4.52396e-41
3.0987e-41
-4.61474e-42
2.98374e-42
-5.08689e-43
3.04797e-43
-4.72422e-44
2.58316e-44
-9.50776e-45
-3.17833e-45
-3.96636e-44
-4.29017e-45
-1.88677e-43
5.79327e-45
-1.02484e-42
-1.3175e-43
5.62257e-40
-4.8312e-41
3.19487e-39
-4.06698e-40
2.3086e-38
-3.28688e-39
3.8564e-38
-2.572e-39
9.14186e-42
6.32876e-39
-3.84892e-38
6.32316e-39
-2.24543e-38
-2.63492e-39
5.74444e-40
-3.75181e-39
2.5791e-38
-4.10723e-39
6.22234e-38
-5.97964e-39
4.23902e-38
3.28121e-39
-1.16425e-38
8.90075e-39
3.83538e-39
-2.57199e-39
3.9203e-38
-5.8588e-39
2.31606e-38
2.63551e-39
3.20475e-39
3.29316e-39
5.66156e-40
4.07682e-40
6.56002e-41
5.7325e-41
8.2969e-42
5.65802e-42
8.45935e-43
5.89909e-43
8.79733e-44
5.21295e-44
8.02136e-45
4.67008e-45
7.2952e-46
3.77506e-46
1.20053e-46
2.80099e-47
7.33965e-46
-2.81742e-47
8.07633e-45
-3.79598e-46
8.86374e-44
-4.69808e-45
8.53222e-43
-5.24766e-44
8.37673e-42
-5.94197e-43
6.63567e-41
-5.70542e-42
5.73591e-40
-5.7862e-41
3.26187e-39
-4.12741e-40
2.36595e-38
-3.34472e-39
4.18249e-38
-2.98468e-39
2.36595e-38
2.98468e-39
3.26187e-39
3.34472e-39
5.73591e-40
4.12741e-40
6.63567e-41
5.7862e-41
8.37669e-42
5.70535e-42
8.52893e-43
5.93577e-43
8.61727e-44
4.66209e-44
-4.32539e-45
-4.01679e-44
-6.37189e-44
-3.44872e-43
-5.202e-44
-1.68522e-42
6.51005e-44
-9.28969e-42
-1.18982e-42
1.12755e-40
-1.28172e-41
4.74822e-40
-1.03341e-40
2.57092e-39
-7.0123e-40
4.1048e-39
-5.20536e-40
2.34822e-42
1.34203e-39
-4.08747e-39
1.34042e-39
-2.44298e-39
-5.3741e-40
1.15087e-40
-8.20084e-40
2.95037e-39
-9.09856e-40
6.79052e-39
-1.25406e-39
4.70734e-39
6.99599e-40
-9.28981e-40
1.86256e-39
6.04884e-40
-5.20532e-40
4.23457e-39
-1.22173e-39
2.5882e-39
5.37583e-40
4.77258e-40
7.03021e-40
1.12971e-40
1.03608e-40
1.49657e-41
1.52782e-41
2.11776e-42
1.61728e-42
2.30695e-43
1.7357e-43
2.5315e-44
1.59457e-44
2.39443e-45
1.45796e-45
2.24404e-46
1.20832e-46
3.77459e-47
9.09096e-48
2.25825e-46
-9.14596e-48
2.41169e-45
-1.21523e-46
2.55188e-44
-1.46704e-45
2.32864e-43
-1.60566e-44
2.14064e-42
-1.74906e-43
1.51706e-41
-1.63174e-42
1.14854e-40
-1.54355e-41
4.90055e-40
-1.05049e-40
2.68574e-39
-7.1665e-40
4.5946e-39
-6.25565e-40
2.68574e-39
6.25565e-40
4.90055e-40
7.1665e-40
1.14854e-40
1.05049e-40
1.51706e-41
1.54355e-41
2.14025e-42
1.63124e-42
2.29848e-43
1.69928e-43
2.67447e-45
-3.15091e-44
-1.13883e-43
-3.67713e-43
-6.13028e-43
-2.88981e-42
-4.98758e-43
-1.43921e-41
6.11723e-43
-8.08967e-41
-1.02955e-41
1.60302e-41
-3.55374e-42
5.23378e-41
-2.34418e-41
2.1767e-40
-1.48742e-40
3.3227e-40
-1.08323e-40
4.0347e-43
2.84413e-40
-3.29486e-40
2.84005e-40
-1.99286e-40
-1.12441e-40
1.63683e-41
-1.7575e-40
2.56815e-40
-1.95778e-40
5.66254e-40
-2.64854e-40
4.02935e-40
1.48233e-40
-4.35285e-41
3.92722e-40
7.10685e-41
-1.08306e-40
3.50961e-40
-2.5695e-40
2.20441e-40
1.12487e-40
5.27429e-41
1.49115e-40
1.6007e-41
2.33832e-41
2.37528e-42
3.72382e-42
3.61836e-43
4.15419e-43
4.15554e-44
4.67436e-44
4.72111e-45
4.44374e-45
4.59941e-46
4.17864e-46
4.40045e-47
3.5381e-47
7.53963e-48
2.70507e-48
4.42917e-47
-2.72186e-48
4.63382e-46
-3.55896e-47
4.76099e-45
-4.20568e-46
4.1971e-44
-4.47617e-45
3.6609e-43
-4.71256e-44
2.41203e-42
-4.19439e-43
1.63263e-41
-3.76605e-42
5.47469e-41
-2.3751e-41
2.33989e-40
-1.52414e-40
3.8697e-40
-1.32053e-40
2.33989e-40
1.32053e-40
5.47469e-41
1.52414e-40
1.63263e-41
2.3751e-41
2.41168e-42
3.76571e-42
3.62769e-43
4.15727e-43
1.60147e-44
1.0478e-44
-1.94442e-43
-3.50442e-43
-1.02871e-42
-2.79892e-42
-5.51283e-42
-2.23504e-41
-4.51648e-42
-1.14291e-40
5.41629e-42
-6.55219e-40
-8.31444e-41
2.18948e-42
-4.34168e-42
5.32019e-42
-4.98528e-42
1.37905e-41
-2.35396e-41
1.90181e-41
-1.63471e-41
6.67383e-44
4.34383e-41
-1.85863e-41
4.33864e-41
-1.1211e-41
-1.69228e-41
2.2659e-42
-2.71897e-41
1.72896e-41
-3.04289e-41
3.50462e-41
-4.03081e-41
2.68576e-41
2.26643e-41
2.67757e-42
5.96729e-41
7.9113e-42
-1.62095e-41
2.16278e-41
-3.89476e-41
1.42008e-41
1.69311e-41
5.35467e-42
2.28229e-41
2.20738e-42
3.81257e-42
3.58902e-43
6.39201e-43
5.86066e-44
7.46223e-44
7.01429e-45
8.67526e-45
8.22815e-46
8.48875e-46
8.20572e-47
8.14656e-47
7.99685e-48
7.02667e-48
1.39006e-48
5.43929e-49
8.05036e-48
-5.47383e-49
8.2691e-47
-7.06916e-48
8.30051e-46
-8.20093e-47
7.08828e-45
-8.55308e-46
5.9346e-44
-8.7496e-45
3.65078e-43
-7.53885e-44
2.25881e-42
-6.47013e-43
5.65332e-42
-3.87836e-42
1.60352e-41
-2.33858e-41
2.46573e-41
-2.0087e-41
1.60352e-41
2.0087e-41
5.65329e-42
2.33858e-41
2.25853e-42
3.87817e-42
3.62274e-43
6.44777e-43
3.25123e-44
5.01577e-44
-2.05375e-43
-2.43623e-43
-1.65767e-42
-2.48744e-42
-8.73332e-42
-2.00448e-41
-4.77758e-41
-1.64529e-40
-3.94866e-41
-8.71628e-40
4.61529e-41
-5.14735e-39
-6.47554e-40
-1.44836e-44
-3.04434e-41
7.81833e-43
-9.91797e-42
6.87187e-43
-9.70608e-42
5.71029e-43
-3.43701e-42
1.90004e-44
6.22897e-42
-4.56725e-43
6.38446e-42
-2.50689e-43
-2.48332e-42
2.81663e-43
-4.04445e-42
8.64406e-43
-4.53622e-42
1.36783e-42
-5.94232e-42
1.34329e-42
3.34558e-42
8.93803e-43
8.78592e-42
8.37045e-43
-2.36558e-42
8.43418e-43
-5.72341e-42
6.28734e-43
2.48191e-42
5.17303e-43
3.37199e-42
2.73484e-43
5.83747e-43
4.76575e-44
1.02613e-43
8.16466e-45
1.23928e-44
1.01009e-45
1.48379e-45
1.21358e-46
1.48495e-46
1.23454e-47
1.45074e-47
1.22105e-48
1.26949e-48
2.14984e-49
9.93036e-50
1.2294e-48
-9.99455e-50
1.24433e-47
-1.27733e-48
1.22461e-46
-1.46066e-47
1.02121e-45
-1.49656e-46
8.27346e-45
-1.49701e-45
4.85438e-44
-1.25266e-44
2.80614e-43
-1.03946e-43
5.56553e-43
-5.94627e-43
8.52531e-43
-3.46191e-42
1.07082e-42
-2.96006e-42
8.52516e-43
2.96005e-42
5.56369e-43
3.46182e-42
2.78563e-43
5.93511e-43
2.80877e-44
9.08884e-44
-1.90108e-43
-1.36656e-43
-1.59444e-42
-1.51366e-42
-1.26964e-41
-1.52467e-41
-6.85044e-41
-1.26256e-40
-3.83057e-40
-1.07135e-39
-3.19737e-40
-5.96679e-39
3.61952e-40
-3.62223e-38
-4.55859e-39
-2.00581e-42
-2.21487e-40
2.50778e-42
-6.9797e-41
9.95288e-43
-4.91729e-41
4.14809e-43
-8.33318e-42
8.37626e-44
-5.64496e-43
8.33508e-44
6.63225e-43
4.9283e-44
-3.39717e-43
3.47356e-44
-5.30825e-43
1.75071e-44
-5.9473e-43
-3.52519e-44
-7.69946e-43
2.91231e-44
4.34264e-43
1.45708e-43
1.13703e-42
9.19904e-44
-3.03367e-43
-2.12127e-44
-7.39386e-43
-6.51615e-46
3.19624e-43
5.26508e-44
4.38056e-43
3.34344e-44
7.84785e-44
6.09645e-45
1.42888e-44
1.08252e-45
1.77647e-45
1.37202e-46
2.17568e-46
1.68026e-47
2.22e-47
1.73554e-48
2.20034e-48
1.73727e-49
1.95024e-49
3.0892e-50
1.53906e-50
1.74935e-49
-1.54917e-50
1.7496e-48
-1.96248e-49
1.69594e-47
-2.21573e-48
1.38762e-46
-2.23782e-47
1.09756e-45
-2.19571e-46
6.2165e-45
-1.79644e-45
3.43762e-44
-1.44838e-44
5.76309e-44
-8.0033e-44
2.64101e-44
-4.50524e-43
-4.18101e-45
-3.8338e-43
2.63057e-44
3.83343e-43
5.64059e-44
4.50065e-43
2.05209e-44
7.41442e-44
-1.3379e-43
-5.52997e-44
-1.38082e-42
-8.09484e-43
-1.13396e-41
-8.40632e-42
-9.26632e-41
-8.71224e-41
-5.15835e-40
-7.49125e-40
-2.98115e-39
-6.69254e-39
-2.5184e-39
-3.99317e-38
2.753e-39
-2.55267e-37
-3.15891e-38
-9.46831e-42
-1.56929e-39
2.32592e-41
-4.71491e-40
8.45222e-42
-3.29488e-40
3.77286e-42
-5.29039e-41
6.38506e-43
-8.77437e-42
1.23054e-43
-9.38947e-43
2.30052e-44
-1.62446e-43
5.58057e-45
-7.855e-44
-2.54462e-45
-7.59767e-44
-1.46729e-44
-9.62352e-44
-3.76628e-45
5.42575e-44
1.85093e-44
1.41835e-43
9.96722e-45
-3.76019e-44
-8.92033e-45
-9.2104e-44
-4.17816e-45
3.97495e-44
5.43434e-45
5.4777e-44
3.83422e-45
1.00459e-44
7.22454e-46
1.88213e-45
1.31551e-46
2.39159e-46
1.70051e-47
2.9835e-47
2.11392e-48
3.09038e-48
2.21211e-49
3.09917e-49
2.23635e-50
2.77452e-50
4.01153e-51
2.20516e-51
2.25213e-50
-2.21982e-51
2.23036e-49
-2.79219e-50
2.13408e-48
-3.12121e-49
1.72037e-47
-3.11571e-48
1.33439e-46
-3.01168e-47
7.373e-46
-2.41935e-46
3.9483e-45
-1.90882e-45
6.02074e-45
-1.02546e-44
-1.10413e-45
-5.64144e-44
-7.63171e-45
-4.78629e-44
-1.69803e-45
4.77187e-44
-1.01638e-45
5.46242e-44
-7.6635e-44
-1.29624e-44
-8.25776e-43
-2.76831e-43
-8.3164e-42
-3.29883e-42
-6.99458e-41
-3.50436e-41
-5.88598e-40
-3.76533e-40
-3.41132e-39
-3.43067e-39
-2.03624e-38
-3.28936e-38
-1.74254e-38
-2.19767e-37
1.81577e-38
-1.46134e-36
-1.82736e-37
3.6056e-41
-9.64464e-39
2.28892e-40
-3.05508e-39
7.2379e-41
-2.2277e-39
2.95129e-41
-3.41464e-40
4.77282e-42
-5.50533e-41
7.89827e-43
-6.21911e-42
9.61625e-44
-7.17911e-43
1.16771e-44
-7.64702e-44
5.92208e-46
-1.52627e-44
-2.04484e-45
-1.1682e-44
-7.56987e-46
6.23836e-45
2.14294e-45
1.63926e-44
1.07914e-45
-4.32005e-45
-1.30687e-45
-1.0634e-44
-6.66531e-46
4.58037e-45
5.72939e-46
6.34816e-45
4.26753e-46
1.18984e-45
8.21907e-47
2.27814e-46
1.52472e-47
2.94895e-47
2.00059e-48
3.73259e-48
2.51649e-49
3.91638e-49
2.66046e-50
3.96542e-50
2.71096e-51
3.58113e-51
4.89644e-52
2.86326e-52
2.73031e-51
-2.88251e-52
2.68271e-50
-3.60422e-51
2.5409e-49
-3.99405e-50
2.02444e-48
-3.94907e-49
1.54714e-47
-3.76865e-48
8.39283e-47
-2.98414e-47
4.39855e-46
-2.31157e-46
6.38066e-46
-1.21566e-45
-3.44391e-46
-6.54793e-45
-1.43508e-45
-5.5675e-45
-3.46335e-45
5.07019e-45
-3.67952e-44
2.98643e-46
-4.35805e-43
-8.11816e-44
-4.56172e-42
-1.00619e-42
-4.71582e-41
-1.22467e-41
-4.08974e-40
-1.34602e-40
-3.59033e-39
-1.53649e-39
-2.18405e-38
-1.52529e-38
-1.38377e-37
-1.64905e-37
-1.20156e-37
-1.28178e-36
1.19849e-37
-9.52479e-36
-1.12814e-36
1.65518e-39
-6.02491e-38
2.40123e-39
-1.60398e-38
5.96031e-40
-1.11506e-38
2.02319e-40
-1.63665e-39
3.08488e-41
-2.49106e-40
4.86868e-42
-2.71485e-41
5.69945e-43
-3.00553e-42
6.6058e-44
-2.83809e-43
6.45047e-45
-2.75171e-44
3.78627e-46
-3.62587e-45
-4.05923e-47
6.06389e-46
2.32835e-46
2.0451e-45
1.12494e-46
-5.41078e-46
-1.50172e-46
-1.33434e-45
-7.85489e-47
5.73936e-46
5.87236e-47
7.98721e-46
4.49171e-47
1.52086e-46
8.80521e-48
2.95985e-47
1.65666e-48
3.88429e-48
2.20158e-49
4.97067e-49
2.79604e-50
5.26598e-50
2.98249e-51
5.37071e-51
3.05944e-52
4.88199e-52
5.55952e-53
3.92068e-53
3.08134e-52
-3.94726e-53
3.00745e-51
-4.91378e-52
2.82307e-50
-5.40997e-51
2.22746e-49
-5.31063e-50
1.68018e-48
-5.01964e-49
8.97492e-48
-3.93187e-48
4.60148e-47
-3.0048e-47
6.09771e-47
-1.5556e-46
-1.11275e-46
-8.25837e-46
-1.05359e-45
-7.17648e-46
-1.19395e-44
3.74651e-46
-1.43843e-43
-3.54386e-45
-1.70633e-42
-5.87439e-44
-1.82439e-41
-7.44135e-43
-1.93882e-40
-9.74745e-42
-1.74597e-39
-1.24523e-40
-1.59996e-38
-1.83064e-39
-1.03631e-37
-2.67064e-38
-6.90739e-37
-4.00428e-37
-6.06823e-37
-4.58748e-36
5.53604e-37
-3.57503e-35
-4.44342e-36
-1.90349e-39
-3.59553e-41
-1.12296e-38
-2.44964e-40
-1.59842e-38
-2.27113e-39
-4.54989e-37
-1.84288e-39
2.86286e-46
4.39794e-39
4.54989e-37
4.39794e-39
1.59842e-38
-1.84287e-39
1.12308e-38
-2.27112e-39
1.90559e-39
-2.4492e-40
1.79915e-40
-3.53214e-41
2.13947e-41
-3.32808e-42
1.72871e-42
-3.51972e-43
-1.72882e-42
-5.95704e-44
-2.1396e-41
-3.51988e-43
-1.79931e-40
-3.32829e-42
-1.90578e-39
-3.53241e-41
-1.12328e-38
-2.4495e-40
-1.60058e-38
-2.27147e-39
-4.5517e-37
-1.84623e-39
-1.92719e-39
4.36227e-39
4.43576e-37
4.14966e-39
-1.92719e-39
-4.14966e-39
-4.5517e-37
-4.36227e-39
-1.60058e-38
1.84623e-39
-1.12328e-38
2.27147e-39
-1.9058e-39
2.4495e-40
-1.80119e-40
3.53214e-41
-2.33406e-41
3.29811e-42
-2.34974e-41
-2.42148e-45
-1.81846e-40
-3.32544e-42
-1.92528e-39
-3.56408e-41
-1.13911e-38
-2.47925e-40
-1.77296e-38
-2.30343e-39
-4.64474e-37
-2.05548e-39
-6.49873e-39
2.33943e-39
6.49855e-39
4.61358e-39
4.64473e-37
2.33941e-39
1.77087e-38
-2.05581e-39
1.12724e-38
-2.30583e-39
-2.64266e-40
-4.44713e-40
3.83992e-41
-2.62705e-39
3.36226e-40
-2.08497e-38
3.0023e-39
-3.5395e-38
2.40813e-39
1.35332e-46
-5.79642e-39
3.5395e-38
-5.79642e-39
2.08497e-38
2.40813e-39
2.62746e-39
3.00229e-39
4.46427e-40
3.36467e-40
4.77619e-41
4.49909e-41
5.75761e-42
4.10114e-42
4.9262e-43
4.08996e-43
-4.92653e-43
6.6894e-44
-5.758e-42
4.09012e-43
-4.77665e-41
4.10135e-42
-4.46482e-40
4.49937e-41
-2.62802e-39
3.36501e-40
-2.08555e-38
3.0027e-39
-3.54433e-38
2.41226e-39
-4.52244e-40
-5.75102e-39
3.27192e-38
-5.45582e-39
-4.52244e-40
5.45582e-39
-3.54433e-38
5.75102e-39
-2.08555e-38
-2.41226e-39
-2.62802e-39
-3.0027e-39
-4.46486e-40
-3.36501e-40
-4.78212e-41
-4.49909e-41
-6.3134e-42
-4.06749e-42
-6.35852e-42
2.62331e-45
-4.83131e-41
4.09828e-42
-4.51697e-40
4.53634e-41
-2.66996e-39
3.40193e-40
-2.12536e-38
3.04356e-39
-3.76186e-38
2.70333e-39
-1.86262e-38
-3.08933e-39
1.86261e-38
-6.09538e-39
3.76181e-38
-3.08931e-39
2.12474e-38
2.70354e-39
2.63149e-39
3.04181e-39
2.6338e-40
-9.00067e-41
1.01444e-41
-3.92254e-40
8.56635e-41
-2.33158e-39
6.42769e-40
-3.79899e-39
4.92075e-40
1.63237e-48
-1.23386e-39
3.79899e-39
-1.23386e-39
2.33158e-39
4.92075e-40
3.92294e-40
6.42767e-40
8.98917e-41
8.5729e-41
1.096e-41
1.19816e-41
1.47791e-42
1.17265e-42
1.34065e-43
1.20207e-43
-1.34075e-43
2.04483e-44
-1.47803e-42
1.20212e-43
-1.09614e-41
1.17272e-42
-8.99074e-41
1.19825e-41
-3.92445e-40
8.57393e-41
-2.33308e-39
6.42888e-40
-3.8101e-39
4.93258e-40
-9.13867e-41
-1.22175e-39
3.39558e-39
-1.14694e-39
-9.13867e-41
1.14694e-39
-3.8101e-39
1.22175e-39
-2.33308e-39
-4.93258e-40
-3.92445e-40
-6.42888e-40
-8.99088e-41
-8.57392e-41
-1.09772e-41
-1.19816e-41
-1.63032e-42
-1.16236e-42
-1.64326e-42
8.15771e-46
-1.1111e-41
1.17176e-42
-9.12371e-41
1.20906e-41
-4.0191e-40
8.67916e-41
-2.41186e-39
6.53686e-40
-4.11101e-39
5.66885e-40
-2.01956e-39
-6.65899e-40
2.01956e-39
-1.30974e-39
4.11095e-39
-6.65892e-40
2.41124e-39
5.66943e-40
3.9813e-40
6.53225e-40
6.69408e-41
-1.28928e-41
2.46803e-42
-4.34593e-41
1.9349e-41
-1.98602e-40
1.36507e-40
-3.10748e-40
1.02804e-40
-3.2775e-48
-2.61949e-40
3.10748e-40
-2.61949e-40
1.98601e-40
1.02804e-40
4.34594e-41
1.36507e-40
1.28271e-41
1.93714e-41
1.74735e-42
2.92983e-42
2.53259e-43
3.02042e-43
2.41069e-44
3.24803e-44
-2.4109e-44
5.71127e-45
-2.53283e-43
3.24818e-44
-1.74762e-42
3.02062e-43
-1.283e-41
2.93009e-42
-4.34867e-41
1.93743e-41
-1.98857e-40
1.36539e-40
-3.12523e-40
1.03109e-40
-1.30836e-41
-2.58987e-40
2.65514e-40
-2.42273e-40
-1.30836e-41
2.42273e-40
-3.12523e-40
2.58987e-40
-1.98857e-40
-1.03109e-40
-4.34867e-41
-1.36539e-40
-1.28303e-41
-1.93742e-41
-1.75058e-42
-2.92983e-42
-2.80806e-43
-2.99168e-43
-2.83208e-43
2.33829e-46
-1.77464e-42
3.01786e-43
-1.30566e-41
2.95918e-42
-4.49776e-41
1.96438e-41
-2.0991e-40
1.39164e-40
-3.42899e-40
1.19518e-40
-1.6645e-40
-1.42157e-40
1.6645e-40
-2.78938e-40
3.42898e-40
-1.42156e-40
2.09898e-40
1.19523e-40
4.48568e-41
1.38997e-40
1.49412e-41
-1.80214e-42
4.21235e-43
-4.42583e-42
3.15768e-42
-1.27862e-41
2.09198e-41
-1.83203e-41
1.54556e-41
-1.42518e-48
-4.01027e-41
1.83203e-41
-4.01027e-41
1.2786e-41
1.54556e-41
4.42454e-42
2.09199e-41
1.78212e-42
3.16243e-42
2.65082e-43
5.03796e-43
4.11579e-44
5.43518e-44
4.06282e-45
6.03777e-45
-4.0632e-45
1.09219e-45
-4.11623e-44
6.03809e-45
-2.6513e-43
5.43559e-44
-1.78263e-42
5.03846e-43
-4.42916e-42
3.16298e-42
-1.28277e-41
2.0926e-41
-1.859e-41
1.55105e-41
-1.82384e-42
-3.95928e-41
1.3626e-41
-3.68853e-41
-1.82384e-42
3.68853e-41
-1.859e-41
3.95928e-41
-1.28277e-41
-1.55105e-41
-4.42916e-42
-2.0926e-41
-1.78268e-42
-3.16298e-42
-2.65646e-43
-5.03796e-43
-4.58236e-44
-5.38021e-44
-4.6241e-44
4.55353e-47
-2.697e-43
5.4302e-44
-1.81927e-42
5.09234e-43
-4.65253e-42
3.21129e-42
-1.43401e-41
2.13749e-41
-2.11907e-41
1.81631e-41
-9.91555e-42
-2.18902e-41
9.91561e-42
-4.28595e-41
2.1192e-41
-2.18902e-41
1.43537e-41
1.81628e-41
4.71659e-42
2.13388e-41
2.40779e-42
-2.25518e-43
6.78469e-44
-4.28939e-43
4.82761e-43
-5.63422e-43
3.09309e-42
-5.82451e-43
2.26174e-42
-2.24639e-49
-5.93082e-42
5.82448e-43
-5.93082e-42
5.63379e-43
2.26176e-42
4.2863e-43
3.09325e-42
2.21904e-43
4.8459e-43
3.52946e-44
8.10435e-44
5.74535e-45
9.04238e-45
5.84234e-46
1.03476e-45
-5.84294e-46
1.91313e-46
-5.74601e-45
1.03481e-45
-3.53017e-44
9.04311e-45
-2.21979e-43
8.10524e-44
-4.29296e-43
4.84687e-43
-5.69207e-43
3.09429e-42
-6.1841e-43
2.2709e-42
-2.27732e-43
-5.84874e-42
1.17857e-43
-5.43709e-42
-2.27732e-43
5.43709e-42
-6.1841e-43
5.84874e-42
-5.69207e-43
-2.2709e-42
-4.29297e-43
-3.09429e-42
-2.21986e-43
-4.84686e-43
-3.5378e-44
-8.10434e-44
-6.41886e-45
-8.94606e-45
-6.48024e-45
8.10688e-48
-3.5961e-44
9.03349e-45
-2.27072e-43
8.1973e-44
-4.58764e-43
4.92693e-43
-7.55149e-43
3.16619e-42
-8.19308e-43
2.67341e-42
-3.26518e-43
-3.24922e-42
3.26542e-43
-6.35066e-42
8.19635e-43
-3.24923e-42
7.5842e-43
2.67314e-42
4.74576e-43
3.15909e-42
3.63939e-43
-2.72905e-44
2.3842e-44
-4.37517e-44
5.56968e-44
1.23687e-45
4.00977e-43
4.32827e-44
2.90725e-43
7.70731e-49
-7.70973e-43
-4.32766e-44
-7.70963e-43
-1.19347e-45
2.90854e-43
4.37222e-44
4.02144e-43
2.72149e-44
6.51987e-44
4.52267e-45
1.13009e-44
7.62935e-46
1.29787e-45
7.92589e-47
1.51926e-46
-7.92674e-47
2.86263e-47
-7.63029e-46
1.51935e-46
-4.52368e-45
1.29798e-45
-2.72254e-44
1.13022e-44
-4.38129e-44
6.52131e-44
4.19056e-46
4.02296e-43
3.86633e-44
2.92166e-43
-2.79894e-44
-7.59509e-43
-9.16124e-44
-7.04451e-43
-2.79894e-44
7.04451e-43
3.86633e-44
7.59509e-43
4.19048e-46
-2.92166e-43
-4.3813e-44
-4.02296e-43
-2.72264e-44
-6.5213e-44
-4.53426e-45
-1.13009e-44
-8.54598e-46
-1.28346e-45
-8.63076e-46
1.22879e-48
-4.61334e-45
1.29652e-45
-2.78997e-44
1.14371e-44
-4.75613e-44
6.63589e-44
-2.21825e-44
4.12284e-43
2.29304e-44
3.45912e-43
2.15401e-44
-4.23876e-43
-2.15348e-44
-8.27193e-43
-2.28704e-44
-4.2388e-43
2.2759e-44
3.45848e-43
5.03437e-44
4.11148e-43
4.84216e-44
8.76778e-45
-3.24294e-44
-3.03591e-45
-7.08748e-44
4.4304e-45
4.10434e-44
1.10294e-44
3.52377e-44
7.47954e-48
-9.65433e-44
-1.09623e-44
-9.64787e-44
-3.85862e-45
3.61217e-44
4.5193e-45
5.03127e-44
3.12647e-45
8.35068e-45
5.3654e-46
1.49036e-45
9.28009e-47
1.74913e-46
9.81276e-48
2.08583e-47
-9.81387e-48
3.98811e-48
-9.28131e-47
2.08596e-47
-5.36669e-46
1.74929e-46
-3.12779e-45
1.49055e-45
-4.53054e-45
8.35269e-45
3.76443e-45
5.03336e-44
1.04152e-44
3.6299e-44
-3.22072e-45
-9.49624e-44
-1.60301e-44
-8.7946e-44
-3.22072e-45
8.7946e-44
1.04152e-44
9.49624e-44
3.76443e-45
-3.6299e-44
-4.53055e-45
-5.03335e-44
-3.12792e-45
-8.35267e-45
-5.38e-46
-1.49036e-45
-1.04178e-46
-1.72904e-46
-1.05243e-46
1.73013e-49
-5.4779e-46
1.74723e-46
-3.2096e-45
1.50902e-45
-4.97286e-45
8.50671e-45
1.18576e-45
5.1647e-44
9.11659e-45
4.31384e-44
5.70512e-45
-5.31772e-44
-5.70426e-45
-1.03648e-43
-9.10776e-45
-5.31781e-44
-1.10391e-45
4.31267e-44
5.36432e-45
5.14795e-44
6.14094e-45
2.82553e-43
2.2376e-42
2.39063e-44
-6.56004e-43
7.09079e-45
-6.962e-44
2.17396e-45
-1.92036e-45
6.67966e-47
-1.1633e-44
-1.50681e-45
-1.12162e-44
-6.12722e-46
4.1556e-45
4.76847e-46
5.83346e-45
3.48312e-46
9.89576e-46
6.10819e-47
1.80546e-46
1.07634e-47
2.15848e-47
1.15338e-48
2.61166e-48
-1.15352e-48
5.05682e-49
-1.07649e-47
2.61183e-48
-6.10972e-47
2.15869e-47
-3.48467e-46
1.80571e-46
-4.78141e-46
9.89838e-46
6.02217e-46
5.8362e-45
1.44989e-45
4.17944e-45
-3.59246e-46
-1.10026e-44
-2.05153e-45
-1.01743e-44
-3.59246e-46
1.01743e-44
1.44989e-45
1.10026e-44
6.02217e-46
-4.17944e-45
-4.78143e-46
-5.8362e-45
-3.48483e-46
-9.89836e-46
-6.12559e-47
-1.80546e-46
-1.21035e-47
-2.13302e-47
-1.223e-47
2.21259e-50
-6.24064e-47
2.15605e-47
-3.57937e-46
1.82879e-46
-5.2829e-46
1.00881e-45
3.16315e-46
5.99491e-45
1.33232e-45
4.98586e-45
7.93141e-46
-6.18044e-45
-7.9302e-46
-1.20335e-44
-1.33115e-45
-6.18058e-45
-3.05766e-46
4.98412e-45
5.7843e-46
5.97286e-45
7.22117e-46
5.75196e-42
-1.13336e-41
5.71552e-43
-1.15553e-42
6.39079e-44
-9.84841e-44
5.61086e-45
-6.84047e-45
4.55351e-46
-1.94283e-45
-1.36738e-46
-1.44415e-45
-6.98065e-47
5.18071e-46
4.90613e-47
7.34085e-46
3.6692e-47
1.26531e-46
6.54779e-48
2.34718e-47
1.17006e-48
2.84479e-48
1.26828e-49
3.48011e-49
-1.2684e-49
6.80225e-50
-1.17018e-48
3.48036e-49
-6.54882e-48
2.84511e-48
-3.66983e-47
2.34757e-47
-4.90368e-47
1.26575e-46
7.11101e-47
7.34585e-46
1.64445e-46
5.23356e-46
-3.78701e-47
-1.38413e-45
-2.26722e-46
-1.27853e-45
-3.78701e-47
1.27853e-45
1.64445e-46
1.38413e-45
7.111e-47
-5.23356e-46
-4.90369e-47
-7.34585e-46
-3.67001e-47
-1.26574e-46
-6.56646e-48
-2.34724e-47
-1.31762e-48
-2.81056e-48
-1.33165e-48
2.99556e-51
-6.69297e-48
2.84153e-48
-3.77259e-47
2.37828e-47
-5.4395e-47
1.29071e-46
4.11223e-47
7.55178e-46
1.53424e-46
6.26076e-46
9.00144e-47
-7.79316e-46
-8.99993e-47
-1.51612e-45
-1.53284e-46
-7.79337e-46
-3.98941e-47
6.25812e-46
6.01924e-47
7.5212e-46
9.17817e-47
4.72348e-38
-4.3424e-37
4.19778e-38
-1.40752e-37
8.69147e-39
-1.07739e-37
2.47105e-39
-1.39439e-38
3.46498e-40
-2.02776e-39
5.18817e-41
-2.08696e-40
5.82683e-42
-2.24554e-41
6.57235e-43
-2.0464e-42
6.33283e-44
-1.87645e-43
5.96347e-45
-1.55917e-44
5.01211e-46
-1.21222e-45
6.75392e-47
3.75703e-47
1.54181e-47
-4.18712e-47
-1.66724e-47
-8.67454e-47
-8.9264e-48
3.70403e-47
6.30245e-48
5.17701e-47
4.88611e-48
1.00183e-47
9.69023e-49
1.99342e-48
1.84038e-49
2.65979e-49
2.46654e-50
3.45844e-50
3.15202e-51
3.7123e-51
3.38138e-52
3.82986e-52
3.48239e-53
3.51592e-53
6.34544e-54
2.84557e-54
3.49805e-53
-2.86418e-54
3.39304e-52
-3.53745e-53
3.15344e-51
-3.85523e-52
2.44644e-50
-3.73889e-51
1.78575e-49
-3.48374e-50
8.59859e-49
-2.67723e-49
3.0356e-48
-1.9985e-48
-2.24579e-47
-9.84552e-48
-4.28557e-46
-4.7335e-47
-5.75604e-45
4.47721e-47
-7.61699e-44
1.31879e-45
-9.39036e-43
1.70897e-44
-1.14401e-41
2.20264e-43
-1.25615e-40
2.55628e-42
-1.39122e-39
2.61922e-41
-1.30362e-38
1.38473e-40
-1.28088e-37
-2.26473e-39
-8.8409e-37
-1.11748e-37
-6.83928e-36
-2.55718e-36
-6.04522e-36
-4.21109e-35
6.11221e-36
-2.18349e-35
-4.22353e-35
6.6767e-36
1.00759e-36
-5.90346e-37
7.17551e-37
-4.82934e-37
1.06719e-37
-1.19716e-37
2.06867e-38
-1.34588e-38
2.52569e-39
-1.82495e-39
3.35783e-40
-1.83298e-40
3.54329e-41
-1.9547e-41
3.79724e-42
-1.77215e-42
3.54304e-43
-1.62123e-43
3.26421e-44
-1.33745e-44
2.7393e-45
-1.08489e-45
2.26011e-46
-7.33018e-47
1.79053e-47
-8.4364e-48
2.61313e-49
-6.25847e-48
-4.50099e-49
2.47462e-48
3.79491e-49
3.50606e-48
2.91971e-49
6.85686e-49
5.85779e-50
1.37248e-49
1.1267e-50
1.8441e-50
1.52649e-51
2.4061e-51
1.96962e-52
2.59315e-52
2.13075e-53
2.67973e-53
2.21015e-54
2.4649e-54
4.07529e-55
1.99602e-55
2.26309e-54
-2.00203e-55
2.21442e-53
-2.46743e-54
2.10205e-52
-2.67448e-53
1.73348e-51
-2.57082e-52
1.44917e-50
-2.3528e-51
1.07603e-49
-1.73725e-50
1.02602e-48
-1.18172e-49
1.09632e-47
-3.68371e-49
1.48497e-46
1.46942e-48
1.99235e-45
7.1409e-47
2.59312e-44
1.06151e-45
3.15451e-43
1.4201e-44
3.74347e-42
1.84368e-43
4.04735e-41
2.15886e-42
4.31875e-40
2.26512e-41
3.97564e-39
1.36972e-40
3.6882e-38
-1.36509e-39
2.50487e-37
-8.23523e-38
1.73986e-36
-1.95225e-36
2.12099e-36
-3.30805e-35
-2.42461e-37
-1.77359e-33
-3.32084e-35
-9.4158e-37
2.8801e-35
-1.46303e-35
1.25132e-36
-6.31608e-37
9.54709e-37
4.75807e-38
1.77841e-37
9.93453e-39
1.96808e-38
1.70563e-39
2.54733e-39
1.81564e-40
2.56606e-40
1.97568e-41
2.69755e-41
1.79954e-42
2.45015e-42
1.64678e-43
2.22537e-43
1.35686e-44
1.83515e-44
1.10371e-45
1.48738e-45
8.39337e-47
1.12447e-46
6.02087e-48
8.22753e-48
7.47823e-50
5.45944e-49
1.82007e-49
6.21864e-50
2.16472e-49
2.04423e-50
4.25437e-50
3.77978e-51
8.58929e-51
7.09247e-52
1.1646e-51
9.58474e-53
1.531e-52
1.23637e-53
1.66166e-53
1.34022e-54
1.72649e-54
1.39902e-55
1.59604e-55
3.95655e-56
1.29218e-56
3.96456e-55
-1.39279e-56
5.91014e-54
-1.77032e-55
9.14483e-53
-2.03919e-54
1.42122e-51
-2.2093e-53
2.2321e-50
-2.47045e-52
3.43493e-49
-2.72823e-51
5.21088e-48
-3.4003e-50
7.60227e-47
-4.40737e-49
1.08096e-45
-6.2971e-48
1.4588e-44
-8.89673e-47
1.91685e-43
-1.26236e-45
2.35369e-42
-1.69199e-44
2.83142e-41
-2.19168e-43
3.09918e-40
-2.53689e-42
3.37396e-39
-2.55867e-41
3.16105e-38
-1.15755e-40
3.03302e-37
2.96326e-39
2.12334e-36
1.30041e-37
1.58934e-35
2.9431e-36
1.46414e-35
4.86135e-35
1.75786e-35
1.99212e-33
4.87195e-35
-1.31449e-35
1.10057e-36
-4.37325e-37
6.08417e-37
-3.05015e-37
9.32721e-38
7.68049e-38
1.85423e-38
1.22921e-38
2.30976e-39
1.95182e-39
3.11872e-40
2.05442e-40
3.3275e-41
2.2293e-41
3.59674e-42
2.0365e-42
3.37797e-43
1.8682e-43
3.12881e-44
1.54426e-44
2.63739e-45
1.25877e-45
2.16898e-46
9.53825e-47
1.66522e-47
7.05246e-48
1.23841e-48
4.72577e-49
8.58909e-50
4.31013e-50
7.32974e-51
1.53993e-50
1.42218e-51
2.76959e-51
2.34692e-52
5.42582e-52
4.23024e-53
7.3323e-53
5.6797e-54
9.62677e-54
7.31903e-55
1.04657e-54
7.95265e-56
1.08801e-55
8.30926e-57
1.00685e-56
2.16105e-57
7.77283e-58
1.97632e-56
-1.61458e-57
2.79563e-55
-2.49768e-56
4.11254e-54
-3.81264e-55
6.10943e-53
-5.88421e-54
9.20898e-52
-9.33404e-53
1.37017e-50
-1.47537e-51
2.00207e-49
-2.34029e-50
2.83254e-48
-3.61754e-49
3.85249e-47
-5.50006e-48
5.02175e-46
-8.01634e-47
6.21153e-45
-1.13874e-45
7.30874e-44
-1.52491e-44
8.03931e-43
-1.96869e-43
8.33225e-42
-2.25976e-42
7.81114e-41
-2.20545e-41
6.80047e-40
-7.33019e-41
4.78759e-39
3.51893e-39
3.07058e-38
1.36403e-37
6.20069e-38
3.003e-36
6.33731e-37
4.84958e-35
1.24452e-36
3.30068e-35
4.86201e-35
7.12142e-37
1.01373e-37
-3.45739e-37
-2.10979e-38
-3.73319e-38
7.35501e-40
6.69726e-39
1.19064e-39
1.37896e-39
2.16105e-40
2.37039e-40
3.73721e-41
2.68182e-41
4.50955e-42
3.02081e-42
5.34534e-43
2.86917e-43
5.32044e-44
2.69584e-44
5.15853e-45
2.28427e-45
4.49127e-46
1.89366e-46
3.7911e-47
1.45939e-47
2.96803e-48
1.09379e-48
2.24753e-49
7.6337e-50
1.59928e-50
5.88233e-51
1.19043e-51
1.11044e-51
1.32405e-52
1.74924e-52
1.67505e-53
3.25215e-53
2.63509e-54
4.35535e-54
3.39849e-55
5.70364e-55
4.29951e-56
6.21209e-56
4.62833e-57
6.46839e-57
1.71997e-58
6.02154e-58
-5.74861e-57
9.00318e-59
-1.06893e-55
7.47574e-58
-1.91284e-54
1.4386e-56
-3.33385e-53
2.68674e-55
-5.61786e-52
4.83969e-54
-9.21895e-51
8.45625e-53
-1.45591e-49
1.42497e-51
-2.23942e-48
2.3348e-50
-3.29181e-47
3.67605e-49
-4.71877e-46
5.63617e-48
-6.39511e-45
8.24559e-47
-8.48474e-44
1.17743e-45
-1.04595e-42
1.5867e-44
-1.27423e-41
2.10119e-43
-1.39899e-40
2.59098e-42
-1.5496e-39
3.22161e-41
-1.45191e-38
3.74414e-40
-1.42709e-37
4.74542e-39
-9.84949e-37
5.75071e-38
-7.62615e-36
7.55801e-37
-6.74184e-36
7.72488e-36
6.83252e-36
5.92592e-35
7.73702e-36
7.54546e-36
7.00463e-39
-5.8654e-38
-4.48849e-39
-6.41464e-39
-3.96055e-40
3.69218e-40
4.23917e-41
1.30752e-40
1.41185e-41
2.80645e-41
3.02713e-42
3.51242e-42
4.02853e-43
4.29713e-43
5.07102e-44
4.30401e-44
5.26936e-45
4.22139e-45
5.26301e-46
3.6879e-46
4.69692e-47
3.13365e-47
4.03739e-48
2.46039e-48
3.21204e-49
1.87298e-49
2.46374e-50
1.33707e-50
1.77828e-51
9.65518e-52
1.28806e-52
1.05158e-52
1.14974e-53
1.27108e-53
1.19244e-54
2.03229e-54
1.61492e-55
2.60764e-55
1.97111e-56
3.34653e-56
2.42799e-57
3.62215e-57
2.63201e-58
3.75988e-58
9.23047e-59
3.90242e-59
1.23374e-57
8.59171e-59
2.2503e-56
1.60318e-57
3.99215e-55
3.0176e-56
6.89652e-54
5.5414e-55
1.15215e-52
9.87378e-54
1.8717e-51
1.71486e-52
2.9257e-50
2.87939e-51
4.44233e-49
4.71005e-50
6.444e-48
7.41027e-49
9.07744e-47
1.13595e-47
1.20851e-45
1.66223e-46
1.56463e-44
2.37407e-45
1.88151e-43
3.20082e-44
2.21138e-42
4.23832e-43
2.34133e-41
5.22221e-42
2.45276e-40
6.4658e-41
2.1727e-39
7.42637e-40
1.94654e-38
9.1915e-39
1.2279e-37
1.06938e-37
7.94457e-37
1.3566e-36
6.90388e-37
1.33179e-35
-6.86396e-37
1.01934e-34
1.33059e-35
-7.81206e-37
7.26148e-40
-5.34324e-39
-7.28567e-40
-6.62074e-40
-8.3559e-41
7.94583e-43
-3.92926e-42
8.43133e-42
5.53729e-43
2.27764e-42
2.18982e-43
3.13152e-43
3.42695e-44
4.07229e-44
4.74591e-45
4.26287e-45
5.21608e-46
4.31298e-46
5.42834e-47
3.86588e-47
4.98762e-48
3.3476e-48
4.38567e-49
2.67226e-49
3.55029e-50
2.06047e-50
2.76191e-51
1.49182e-51
2.01866e-52
1.06631e-52
1.4481e-53
9.35466e-54
1.12776e-54
9.29531e-55
9.73179e-56
1.25809e-55
1.07479e-56
1.51987e-56
1.18558e-57
1.89208e-57
1.39701e-58
2.02655e-58
5.01425e-59
2.09496e-59
6.92493e-58
2.78376e-60
1.30046e-56
1.69964e-59
2.38739e-55
3.25963e-58
4.25454e-54
6.14475e-57
7.38854e-53
1.13055e-55
1.24114e-51
2.01858e-54
2.02994e-50
3.51485e-53
3.19576e-49
5.91723e-52
4.8968e-48
9.71099e-51
7.17167e-47
1.53294e-49
1.02308e-45
2.36073e-48
1.38022e-44
3.47507e-47
1.8195e-43
5.02477e-46
2.22985e-42
6.97668e-45
2.69256e-41
1.00222e-43
2.93319e-40
1.52804e-42
3.20736e-39
2.88346e-41
2.97292e-38
6.38242e-40
2.86386e-37
1.53159e-38
1.94643e-36
3.38081e-37
1.45184e-35
6.37588e-36
1.28335e-35
9.3292e-35
-1.28239e-35
2.03995e-34
9.31523e-35
-1.42877e-35
5.94765e-41
-6.24119e-40
-6.59368e-41
-7.9055e-41
-8.50216e-42
-4.68619e-42
-7.20997e-43
2.59299e-43
-3.06765e-45
1.62304e-43
1.2537e-44
2.61626e-44
2.37505e-45
3.74386e-45
3.59659e-46
4.14153e-46
4.16049e-47
4.3653e-47
4.48185e-48
4.02724e-48
4.22574e-49
3.56667e-49
3.78753e-50
2.89661e-50
3.11483e-51
2.26445e-51
2.45316e-52