/*--------------------------------*- C++ -*----------------------------------*\
| =========                 |                                                 |
| \\      /  F ield         | OpenFOAM: The Open Source CFD Toolbox           |
|  \\    /   O peration     | Version:  2.4.0                                 |
|   \\  /    A nd           | Web:      www.OpenFOAM.org                      |
|    \\/     M anipulation  |                                                 |
\*---------------------------------------------------------------------------*/
FoamFile
{
    version     2.0;
    format      ascii;
    class       volVectorField;
    location    "0.55";
    object      U;
}
// * * * * * * * * * * * * * * * * * * * * * * * * * * * * * * * * * * * * * //

dimensions      [0 1 -1 0 0 0 0];

internalField   nonuniform List<vector> 
7700
(
(6.15527e-36 1.80621e-36 0)
(6.23131e-35 1.33749e-35 0)
(3.28648e-34 1.12253e-34 0)
(3.73875e-33 8.88523e-35 0)
(3.46704e-33 -2.16615e-34 0)
(-3.46608e-33 -2.16423e-34 0)
(-3.7317e-33 9.09858e-35 0)
(-2.59956e-34 1.27594e-34 0)
(3.29533e-34 1.39226e-34 0)
(4.06828e-33 2.05199e-34 0)
(7.27439e-33 -1.12059e-34 0)
(3.98065e-34 -3.05467e-34 0)
(-3.06882e-33 8.88521e-35 0)
(3.53645e-33 2.01103e-34 0)
(3.74587e-33 -9.10065e-35 0)
(3.29533e-34 -1.12468e-34 0)
(6.24527e-35 -1.34017e-35 0)
(6.24933e-36 -1.94227e-36 0)
(7.99964e-37 -1.9347e-37 0)
(7.65185e-38 -2.07249e-38 0)
(7.9423e-39 -1.85888e-39 0)
(7.00193e-40 -1.69696e-40 0)
(6.29432e-41 -1.38871e-41 0)
(5.50277e-42 -1.04302e-42 0)
(5.52896e-42 1.04926e-42 0)
(6.33213e-41 1.39657e-41 0)
(7.04871e-40 1.70738e-40 0)
(8.00006e-39 1.87163e-39 0)
(7.7155e-38 2.08806e-38 0)
(8.07196e-37 1.95157e-37 0)
(6.31779e-36 1.96111e-36 0)
(6.31747e-35 1.35741e-35 0)
(3.34967e-34 1.14213e-34 0)
(3.80192e-33 1.02424e-34 0)
(3.80192e-33 -1.02424e-34 0)
(3.34967e-34 -1.14213e-34 0)
(6.31747e-35 -1.35741e-35 0)
(6.31779e-36 -1.96111e-36 0)
(8.07196e-37 -1.95157e-37 0)
(7.71549e-38 -2.08807e-38 0)
(7.99932e-39 -1.8731e-39 0)
(6.9941e-40 -1.81722e-40 0)
(3.78088e-41 -9.60707e-41 0)
(-1.28517e-40 -3.86044e-40 0)
(6.0776e-42 -2.06628e-39 0)
(1.59259e-40 -2.6623e-40 0)
(1.5881e-36 -8.23971e-37 0)
(1.44584e-35 -6.9787e-36 0)
(7.67213e-35 -5.85798e-35 0)
(5.82139e-34 -4.63034e-35 0)
(5.18455e-34 1.12936e-34 0)
(-5.18195e-34 1.12842e-34 0)
(-5.80265e-34 -4.7373e-35 0)
(-6.05668e-35 -6.65498e-35 0)
(7.69611e-35 -7.26542e-35 0)
(6.59098e-34 -1.06937e-34 0)
(1.11672e-33 5.84848e-35 0)
(9.30702e-35 1.5924e-34 0)
(-4.25342e-34 -4.63033e-35 0)
(5.34801e-34 -1.04882e-34 0)
(5.84031e-34 4.73828e-35 0)
(7.69611e-35 5.8685e-35 0)
(1.45005e-35 6.99536e-36 0)
(1.65725e-36 9.75881e-37 0)
(2.14947e-37 9.47875e-38 0)
(2.18416e-38 9.83402e-39 0)
(2.3009e-39 8.61211e-40 0)
(2.09814e-40 7.68488e-41 0)
(1.91111e-41 6.17463e-42 0)
(1.70895e-42 4.56762e-43 0)
(1.71729e-42 -4.59421e-43 0)
(1.92296e-41 -6.20859e-42 0)
(2.11264e-40 -7.73054e-41 0)
(2.3184e-39 -8.66889e-40 0)
(2.20321e-38 -9.90462e-39 0)
(2.17035e-37 -9.55708e-38 0)
(1.67675e-36 -9.84841e-37 0)
(1.46932e-35 -7.08016e-36 0)
(7.83988e-35 -5.95644e-35 0)
(5.9683e-34 -5.33826e-35 0)
(5.9683e-34 5.33826e-35 0)
(7.83988e-35 5.95644e-35 0)
(1.46932e-35 7.08016e-36 0)
(1.67675e-36 9.84841e-37 0)
(2.17035e-37 9.55707e-38 0)
(2.2031e-38 9.9032e-39 0)
(2.31011e-39 8.53615e-40 0)
(1.49211e-40 -2.34555e-41 0)
(-2.72656e-40 -7.59871e-40 0)
(-1.54585e-39 -3.6856e-39 0)
(6.12257e-41 -2.00499e-38 0)
(1.7967e-39 -2.57694e-39 0)
(3.74925e-37 -2.18603e-37 0)
(2.84305e-36 -1.79786e-36 0)
(1.07081e-35 -1.23511e-35 0)
(6.26644e-35 -9.20045e-36 0)
(5.44844e-35 2.36386e-35 0)
(-5.44174e-35 2.36116e-35 0)
(-6.22366e-35 -9.48863e-36 0)
(-7.48462e-36 -1.44143e-35 0)
(1.07691e-35 -1.598e-35 0)
(7.34328e-35 -2.21034e-35 0)
(1.20365e-34 1.23237e-35 0)
(1.398e-35 3.2839e-35 0)
(-4.04926e-35 -9.20042e-36 0)
(5.77556e-35 -2.15512e-35 0)
(6.30966e-35 9.49153e-36 0)
(1.07691e-35 1.23815e-35 0)
(2.85154e-36 1.80244e-36 0)
(3.72597e-37 2.61195e-37 0)
(5.45157e-38 2.73128e-38 0)
(5.92391e-39 2.89624e-39 0)
(6.60006e-40 2.63746e-40 0)
(6.24687e-41 2.39317e-41 0)
(5.86709e-42 1.97195e-42 0)
(5.37275e-43 1.47693e-43 0)
(5.39973e-43 -1.4858e-43 0)
(5.90494e-42 -1.98314e-42 0)
(6.29232e-41 -2.40794e-41 0)
(6.65368e-40 -2.65557e-40 0)
(5.98043e-39 -2.91817e-39 0)
(5.51123e-38 -2.75523e-38 0)
(3.77849e-37 -2.63823e-37 0)
(2.90001e-36 -1.82681e-36 0)
(1.10859e-35 -1.26148e-35 0)
(6.55637e-35 -1.1027e-35 0)
(6.55637e-35 1.1027e-35 0)
(1.10859e-35 1.26148e-35 0)
(2.90001e-36 1.82681e-36 0)
(3.77849e-37 2.63823e-37 0)
(5.51112e-38 2.7551e-38 0)
(5.97039e-39 2.90621e-39 0)
(5.8935e-40 1.52465e-40 0)
(-5.13022e-40 -8.43369e-40 0)
(-2.73712e-39 -6.68248e-39 0)
(-1.47584e-38 -3.26815e-38 0)
(5.24083e-40 -1.80422e-37 0)
(1.69341e-38 -2.30994e-38 0)
(6.03653e-38 -5.79925e-38 0)
(3.97127e-37 -4.32246e-37 0)
(1.09656e-36 -2.78145e-36 0)
(5.11562e-36 -2.03272e-36 0)
(4.36717e-36 5.32233e-36 0)
(-4.35566e-36 5.31483e-36 0)
(-5.04769e-36 -2.10869e-36 0)
(-6.39807e-37 -3.28309e-36 0)
(1.10695e-36 -3.65474e-36 0)
(6.22241e-36 -4.95919e-36 0)
(9.93814e-36 2.77366e-36 0)
(1.56138e-36 7.35502e-36 0)
(-2.80366e-36 -2.03268e-36 0)
(4.83191e-36 -4.81384e-36 0)
(5.1843e-36 2.10954e-36 0)
(1.10695e-36 2.78975e-36 0)
(3.98304e-37 4.33432e-37 0)
(5.85259e-38 6.85084e-38 0)
(9.26339e-39 7.5881e-39 0)
(1.06321e-39 8.49413e-40 0)
(1.2276e-40 8.03619e-41 0)
(1.19779e-41 7.53101e-42 0)
(1.14855e-42 6.35604e-43 0)
(1.07312e-43 4.84905e-44 0)
(1.07864e-43 -4.87902e-44 0)
(1.1562e-42 -6.39335e-43 0)
(1.20685e-41 -7.57947e-42 0)
(1.23808e-40 -8.09447e-41 0)
(1.07402e-39 -8.563e-40 0)
(9.37397e-39 -7.66082e-39 0)
(5.9464e-38 -6.92761e-38 0)
(4.0648e-37 -4.40155e-37 0)
(1.15596e-36 -2.85051e-36 0)
(5.52195e-36 -2.47276e-36 0)
(5.52195e-36 2.47276e-36 0)
(1.15596e-36 2.85051e-36 0)
(4.0648e-37 4.40155e-37 0)
(5.94631e-38 6.92753e-38 0)
(9.36489e-39 7.65107e-39 0)
(9.88339e-40 7.60846e-40 0)
(-5.31288e-40 -8.32432e-40 0)
(-5.01799e-39 -7.09188e-39 0)
(-2.43408e-38 -5.56797e-38 0)
(-1.32992e-37 -2.779e-37 0)
(4.09452e-39 -1.56533e-36 0)
(1.50483e-37 -1.99077e-37 0)
(7.75607e-39 -1.86973e-38 0)
(5.47304e-38 -7.36291e-38 0)
(9.71049e-38 -4.28409e-37 0)
(2.96469e-37 -3.04889e-37 0)
(2.46296e-37 8.15306e-37 0)
(-2.44391e-37 8.13996e-37 0)
(-2.86052e-37 -3.17784e-37 0)
(-3.39035e-38 -5.09608e-37 0)
(9.8571e-38 -5.7015e-37 0)
(3.94864e-37 -7.56372e-37 0)
(6.05336e-37 4.2522e-37 0)
(1.61164e-37 1.11994e-36 0)
(-8.47475e-38 -3.04572e-37 0)
(3.10532e-37 -7.31153e-37 0)
(3.06712e-37 3.17942e-37 0)
(9.8571e-38 4.28146e-37 0)
(5.42483e-38 7.1178e-38 0)
(8.7491e-39 1.18517e-38 0)
(1.49376e-39 1.37666e-39 0)
(1.78834e-40 1.59315e-40 0)
(2.13493e-41 1.55342e-41 0)
(2.13343e-42 1.48652e-42 0)
(2.08442e-43 1.27919e-43 0)
(1.97839e-44 9.88508e-45 0)
(1.98876e-44 -9.94767e-45 0)
(2.09865e-43 -1.2869e-43 0)
(2.15009e-42 -1.4964e-42 0)
(2.15391e-41 -1.56513e-41 0)
(1.80756e-40 -1.60672e-40 0)
(1.51294e-39 -1.39068e-39 0)
(8.90617e-39 -1.19952e-38 0)
(5.5559e-38 -7.23924e-38 0)
(1.05783e-37 -4.3859e-37 0)
(3.51852e-37 -3.76949e-37 0)
(3.51852e-37 3.76949e-37 0)
(1.05783e-37 4.3859e-37 0)
(5.55583e-38 7.23919e-38 0)
(8.89874e-39 1.19889e-38 0)
(1.44036e-39 1.32035e-39 0)
(-5.12479e-40 -5.3473e-40 0)
(-5.34881e-39 -6.73012e-39 0)
(-4.19602e-38 -5.33089e-38 0)
(-2.07284e-37 -4.26643e-37 0)
(-1.15621e-36 -2.1885e-36 0)
(2.92844e-38 -1.25743e-35 0)
(1.28789e-36 -1.59518e-36 0)
(-1.29161e-38 -7.49963e-38 0)
(1.25027e-38 -3.39535e-38 0)
(9.81034e-39 -7.95766e-38 0)
(9.80159e-39 -4.78815e-38 0)
(6.49526e-39 1.22093e-37 0)
(-5.953e-39 1.22284e-37 0)
(-7.08168e-39 -4.74106e-38 0)
(-7.28349e-41 -7.71462e-38 0)
(8.11133e-39 -8.65062e-38 0)
(1.65583e-38 -1.13479e-37 0)
(2.24786e-38 6.38754e-38 0)
(1.5858e-38 1.67806e-37 0)
(9.65059e-39 -4.52302e-38 0)
(1.42382e-38 -1.09337e-37 0)
(9.83245e-39 4.74309e-38 0)
(8.11125e-39 6.43732e-38 0)
(6.65229e-39 1.10974e-38 0)
(1.15279e-39 1.94226e-39 0)
(2.0733e-40 2.33692e-40 0)
(2.56845e-41 2.78969e-41 0)
(3.14294e-42 2.78459e-42 0)
(3.20542e-43 2.71511e-43 0)
(3.17884e-44 2.37169e-44 0)
(3.0596e-45 1.85293e-45 0)
(3.07591e-45 -1.86487e-45 0)
(3.20103e-44 -2.38629e-44 0)
(3.23115e-43 -2.73363e-43 0)
(3.17186e-42 -2.80628e-42 0)
(2.59728e-41 -2.81443e-41 0)
(2.10147e-40 -2.36201e-40 0)
(1.17527e-39 -1.96732e-39 0)
(6.8333e-39 -1.13027e-38 0)
(9.0504e-39 -6.60761e-38 0)
(1.52804e-38 -5.65302e-38 0)
(1.52803e-38 5.65301e-38 0)
(9.04998e-39 6.60759e-38 0)
(6.82848e-39 1.12991e-38 0)
(1.12156e-39 1.92536e-39 0)
(-3.19948e-40 -2.37942e-40 0)
(-5.10563e-39 -4.72267e-39 0)
(-4.03988e-38 -4.6949e-38 0)
(-3.21949e-37 -3.79258e-37 0)
(-1.63313e-36 -3.1239e-36 0)
(-9.29911e-36 -1.66213e-35 0)
(1.73998e-37 -9.85057e-35 0)
(1.01559e-35 -1.23791e-35 0)
(-1.11126e-37 -5.81972e-37 0)
(5.38816e-38 -1.80077e-37 0)
(1.76891e-38 -1.29881e-37 0)
(1.07159e-38 -2.62892e-38 0)
(1.12252e-39 1.23283e-38 0)
(1.26802e-39 1.54927e-38 0)
(1.11077e-39 -6.17955e-39 0)
(2.95744e-40 -1.01332e-38 0)
(6.95591e-40 -1.13855e-38 0)
(-1.95948e-40 -1.47565e-38 0)
(-8.10121e-40 8.32241e-39 0)
(1.64128e-39 2.17946e-38 0)
(2.51715e-39 -5.81912e-39 0)
(1.082e-40 -1.41748e-38 0)
(-7.13597e-40 6.12866e-39 0)
(6.95e-40 8.39439e-39 0)
(8.07623e-40 1.49983e-39 0)
(1.46576e-40 2.72144e-40 0)
(2.74135e-41 3.37449e-41 0)
(3.48113e-42 4.1233e-42 0)
(4.34525e-43 4.19933e-43 0)
(4.50129e-44 4.15591e-44 0)
(4.51843e-45 3.67879e-45 0)
(4.39633e-46 2.9005e-46 0)
(4.42008e-46 -2.91951e-46 0)
(4.55054e-45 -3.70185e-45 0)
(4.5382e-44 -4.1849e-44 0)
(4.38631e-43 -4.23295e-43 0)
(3.52156e-42 -4.16113e-42 0)
(2.78022e-41 -3.41226e-41 0)
(1.49613e-40 -2.7584e-40 0)
(8.31465e-40 -1.52937e-39 0)
(8.13289e-40 -8.63195e-39 0)
(-5.956e-41 -7.34808e-39 0)
(-5.97636e-41 7.34795e-39 0)
(8.10514e-40 8.63034e-39 0)
(7.99279e-40 1.50891e-39 0)
(-2.13624e-40 3.60104e-41 0)
(-3.60467e-39 -2.71109e-39 0)
(-3.5803e-38 -2.79421e-38 0)
(-2.87821e-37 -2.82076e-37 0)
(-2.35673e-36 -2.34535e-36 0)
(-1.23649e-35 -1.99958e-35 0)
(-7.27155e-35 -1.12142e-34 0)
(8.41923e-37 -6.83173e-34 0)
(7.7727e-35 -8.59955e-35 0)
(-7.85204e-37 -4.19773e-36 0)
(5.14984e-37 -1.32614e-36 0)
(1.48822e-37 -9.31272e-37 0)
(9.24e-38 -1.53541e-37 0)
(1.52752e-38 -2.45101e-38 0)
(2.94737e-39 -1.18023e-39 0)
(5.64526e-40 -1.15156e-39 0)
(9.203e-41 -1.32198e-39 0)
(6.72364e-41 -1.44883e-39 0)
(-1.39858e-40 -1.85897e-39 0)
(-2.78897e-40 1.04903e-39 0)
(1.71409e-40 2.7425e-39 0)
(3.56836e-40 -7.27542e-40 0)
(-7.23778e-41 -1.78113e-39 0)
(-1.82204e-40 7.68848e-40 0)
(6.29613e-41 1.05887e-39 0)
(9.21316e-41 1.93734e-40 0)
(1.72948e-41 3.62096e-41 0)
(3.32366e-42 4.59146e-42 0)
(4.30718e-43 5.71831e-43 0)
(5.45979e-44 5.91429e-44 0)
(5.73209e-45 5.92442e-45 0)
(5.81154e-46 5.29833e-46 0)
(5.70874e-47 4.20804e-47 0)
(5.73993e-47 -4.23598e-47 0)
(5.85346e-46 -5.33202e-46 0)
(5.77997e-45 -5.96648e-45 0)
(5.51255e-44 -5.96267e-44 0)
(4.3586e-43 -5.77218e-43 0)
(3.37242e-42 -4.64459e-42 0)
(1.76697e-41 -3.67212e-41 0)
(9.50126e-41 -1.97742e-40 0)
(7.68159e-41 -1.09037e-39 0)
(-1.08327e-40 -9.2527e-40 0)
(-1.09477e-40 9.24597e-40 0)
(6.10166e-41 1.08208e-39 0)
(-9.00236e-41 9.11239e-41 0)
(-2.0971e-39 -1.22938e-39 0)
(-2.14701e-38 -1.47576e-38 0)
(-2.15875e-37 -1.53467e-37 0)
(-1.78034e-36 -1.59803e-36 0)
(-1.50179e-35 -1.38208e-35 0)
(-8.23391e-35 -1.24429e-34 0)
(-4.98792e-34 -7.49586e-34 0)
(1.47976e-36 -4.8255e-33 0)
(5.16731e-34 -5.95699e-34 0)
(-4.16395e-36 -2.96676e-35 0)
(5.19296e-36 -8.84866e-36 0)
(1.33949e-36 -6.1791e-36 0)
(7.26163e-37 -9.88127e-37 0)
(1.16119e-37 -1.64841e-37 0)
(2.00946e-38 -1.90823e-38 0)
(2.4466e-39 -2.35404e-39 0)
(2.97819e-40 -3.73137e-40 0)
(3.54373e-41 -1.90746e-40 0)
(-1.8536e-41 -2.1779e-40 0)
(-3.98225e-41 1.21846e-40 0)
(1.82186e-41 3.18311e-40 0)
(4.29398e-41 -8.39078e-41 0)
(-1.21418e-41 -2.06473e-40 0)
(-2.51556e-41 8.89468e-41 0)
(6.13322e-42 1.23222e-40 0)
(1.02181e-41 2.30566e-41 0)
(1.96113e-42 4.40689e-42 0)
(3.84544e-43 5.696e-43 0)
(5.06026e-44 7.20106e-44 0)
(6.49305e-45 7.54759e-45 0)
(6.88879e-46 7.63605e-46 0)
(7.04015e-47 6.89105e-47 0)
(6.96788e-48 5.50701e-48 0)
(7.00628e-48 -5.54399e-48 0)
(7.09153e-47 -6.93542e-47 0)
(6.94714e-46 -7.6911e-46 0)
(6.55687e-45 -7.61049e-45 0)
(5.12194e-44 -7.27045e-44 0)
(3.90325e-43 -5.76374e-43 0)
(2.00494e-42 -4.47126e-42 0)
(1.05483e-41 -2.35533e-41 0)
(7.66177e-42 -1.27055e-40 0)
(-1.74905e-41 -1.07613e-40 0)
(-2.34658e-41 1.05174e-40 0)
(-7.53761e-41 9.67159e-41 0)
(-9.74739e-40 -3.70853e-40 0)
(-1.14629e-38 -4.74465e-39 0)
(-1.18726e-37 -5.64313e-38 0)
(-1.22714e-36 -6.02776e-37 0)
(-1.04447e-35 -6.52758e-36 0)
(-9.20214e-35 -6.02132e-35 0)
(-5.31295e-34 -5.85416e-34 0)
(-3.4179e-33 -3.99299e-33 0)
(-1.12878e-35 -2.67103e-32 0)
(3.43171e-33 -3.34775e-33 0)
(-9.29954e-36 -1.78464e-34 0)
(5.65375e-35 -5.708e-35 0)
(1.19923e-35 -4.18948e-35 0)
(5.01806e-36 -6.38068e-36 0)
(7.5601e-37 -1.02321e-36 0)
(1.24399e-37 -1.15126e-37 0)
(1.45508e-38 -1.31385e-38 0)
(1.71512e-39 -1.27709e-39 0)
(1.70135e-40 -1.38624e-40 0)
(1.39583e-41 -3.43087e-41 0)
(-3.15249e-42 1.27781e-41 0)
(1.994e-42 3.54428e-41 0)
(4.65098e-42 -9.31901e-42 0)
(-1.44047e-42 -2.30092e-41 0)
(-2.84535e-42 9.89769e-42 0)
(6.03609e-43 1.37718e-41 0)
(1.07233e-42 2.62021e-42 0)
(2.09578e-43 5.09343e-43 0)
(4.17177e-44 6.67842e-44 0)
(5.5624e-45 8.53884e-45 0)
(7.20796e-46 9.03962e-46 0)
(7.71782e-47 9.21346e-47 0)
(7.94033e-48 8.37038e-48 0)
(7.91141e-49 6.71916e-49 0)
(7.95514e-49 -6.76469e-49 0)
(7.99846e-48 -8.42485e-48 0)
(7.78324e-47 -9.28079e-47 0)
(7.27855e-46 -9.11629e-46 0)
(5.6292e-45 -8.62304e-45 0)
(4.23223e-44 -6.76039e-44 0)
(2.13817e-43 -5.17115e-43 0)
(1.09942e-42 -2.68068e-42 0)
(6.40834e-43 -1.42496e-41 0)
(-3.81657e-42 -1.25335e-41 0)
(-2.62523e-41 4.24102e-42 0)
(-3.14495e-40 -9.02712e-41 0)
(-3.7907e-39 -1.38105e-39 0)
(-4.4907e-38 -1.69689e-38 0)
(-4.75762e-37 -2.07853e-37 0)
(-5.05751e-36 -2.30195e-36 0)
(-4.47714e-35 -2.66298e-35 0)
(-4.11847e-34 -2.68945e-34 0)
(-2.54572e-33 -2.97323e-33 0)
(-1.71676e-32 -2.36678e-32 0)
(-1.50775e-34 -1.78835e-31 0)
(1.59503e-32 -2.09976e-32 0)
(-4.54805e-36 -1.35588e-36 0)
(-4.97764e-35 -1.04711e-35 0)
(-2.7071e-34 -9.70962e-35 0)
(-3.39525e-33 -7.86807e-35 0)
(-3.1703e-33 1.87847e-34 0)
(3.1703e-33 1.87847e-34 0)
(3.39525e-33 -7.86807e-35 0)
(2.70711e-34 -9.70958e-35 0)
(4.98111e-35 -1.04742e-35 0)
(4.57342e-36 -1.44812e-36 0)
(5.61257e-37 -1.33146e-37 0)
(4.93366e-38 -1.36598e-38 0)
(-1.98789e-43 -2.26541e-39 0)
(-4.93392e-38 -1.36604e-38 0)
(-5.61291e-37 -1.33153e-37 0)
(-4.57382e-36 -1.44822e-36 0)
(-4.98161e-35 -1.04753e-35 0)
(-2.70761e-34 -9.71094e-35 0)
(-3.39582e-33 -7.8815e-35 0)
(-3.17492e-33 1.86385e-34 0)
(3.11992e-33 1.77238e-34 0)
(3.11992e-33 -1.77238e-34 0)
(-3.17492e-33 -1.86385e-34 0)
(-3.39582e-33 7.8815e-35 0)
(-2.70761e-34 9.71094e-35 0)
(-4.98161e-35 1.04753e-35 0)
(-4.57423e-36 1.44812e-36 0)
(-5.66272e-37 1.32006e-37 0)
(-9.98553e-38 -9.04588e-41 0)
(-5.70748e-37 -1.33047e-37 0)
(-4.61902e-36 -1.46054e-36 0)
(-5.03272e-35 -1.05948e-35 0)
(-2.74768e-34 -9.84233e-35 0)
(-3.44101e-33 -8.78274e-35 0)
(-3.39525e-33 9.98977e-35 0)
(-3.28502e-40 1.97115e-34 0)
(3.39525e-33 9.98968e-35 0)
(3.44097e-33 -8.78374e-35 0)
(2.74212e-34 -9.84433e-35 0)
(4.74952e-35 -9.68224e-36 0)
(-1.17529e-36 6.20747e-37 0)
(-1.15166e-35 5.46268e-36 0)
(-6.34579e-35 5.06613e-35 0)
(-5.3158e-34 4.10019e-35 0)
(-4.78574e-34 -9.79278e-35 0)
(4.78574e-34 -9.79278e-35 0)
(5.3158e-34 4.10019e-35 0)
(6.34584e-35 5.06613e-35 0)
(1.15279e-35 5.46665e-36 0)
(1.21284e-36 7.25952e-37 0)
(1.5026e-37 6.51007e-38 0)
(1.40592e-38 6.46354e-39 0)
(-6.22038e-44 1.04745e-39 0)
(-1.406e-38 6.46379e-39 0)
(-1.5027e-37 6.5104e-38 0)
(-1.21296e-36 7.25997e-37 0)
(-1.15294e-35 5.46717e-36 0)
(-6.34727e-35 5.06677e-35 0)
(-5.31732e-34 4.10675e-35 0)
(-4.79801e-34 -9.71954e-35 0)
(4.66894e-34 -9.23956e-35 0)
(4.66894e-34 9.23956e-35 0)
(-4.79801e-34 9.71954e-35 0)
(-5.31732e-34 -4.10675e-35 0)
(-6.34727e-35 -5.06677e-35 0)
(-1.15294e-35 -5.46717e-36 0)
(-1.21308e-36 -7.25952e-37 0)
(-1.51709e-37 -6.45739e-38 0)
(-2.84718e-38 4.095e-41 0)
(-1.52997e-37 6.50561e-38 0)
(-1.22583e-36 7.31844e-37 0)
(-1.16654e-35 5.5258e-36 0)
(-6.45338e-35 5.1328e-35 0)
(-5.42032e-34 4.58018e-35 0)
(-5.3158e-34 -5.20664e-35 0)
(-1.10638e-40 -1.02787e-34 0)
(5.31578e-34 -5.20661e-35 0)
(5.42019e-34 4.5805e-35 0)
(6.43694e-35 5.1299e-35 0)
(1.07318e-35 4.27915e-36 0)
(-2.78884e-37 1.64351e-37 0)
(-2.28986e-36 1.41169e-36 0)
(-8.90485e-36 1.07227e-35 0)
(-5.76372e-35 8.23396e-36 0)
(-5.07838e-35 -2.0584e-35 0)
(5.07838e-35 -2.0584e-35 0)
(5.76372e-35 8.23395e-36 0)
(8.90483e-36 1.07226e-35 0)
(2.29102e-36 1.41266e-36 0)
(2.7444e-37 1.93917e-37 0)
(3.83526e-38 1.87499e-38 0)
(3.82615e-39 1.89865e-39 0)
(-1.99216e-44 3.2024e-40 0)
(-3.8264e-39 1.89873e-39 0)
(-3.83559e-38 1.87509e-38 0)
(-2.74476e-37 1.93931e-37 0)
(-2.29143e-36 1.41282e-36 0)
(-8.90873e-36 1.07245e-35 0)
(-5.76759e-35 8.25286e-36 0)
(-5.10621e-35 -2.03881e-35 0)
(4.8454e-35 -1.91524e-35 0)
(4.8454e-35 1.91524e-35 0)
(-5.10621e-35 2.03881e-35 0)
(-5.76759e-35 -8.25286e-36 0)
(-8.90873e-36 -1.07245e-35 0)
(-2.29143e-36 -1.41282e-36 0)
(-2.74513e-37 -1.93917e-37 0)
(-3.87706e-38 -1.85888e-38 0)
(-7.75775e-39 1.26854e-41 0)
(-3.91399e-38 1.8736e-38 0)
(-2.77963e-37 1.95641e-37 0)
(-2.32589e-36 1.42967e-36 0)
(-9.1444e-36 1.08995e-35 0)
(-5.96886e-35 9.46971e-36 0)
(-5.76372e-35 -1.10971e-35 0)
(-1.66704e-41 -2.18369e-35 0)
(5.7637e-35 -1.1097e-35 0)
(5.96873e-35 9.47079e-36 0)
(9.12818e-36 1.08929e-35 0)
(2.23422e-36 1.10583e-36 0)
(-4.52265e-38 4.30585e-38 0)
(-3.22727e-37 3.39753e-37 0)
(-9.17577e-37 2.4192e-36 0)
(-4.7504e-36 1.82685e-36 0)
(-4.11818e-36 -4.64307e-36 0)
(4.11818e-36 -4.64307e-36 0)
(4.7504e-36 1.82685e-36 0)
(9.17557e-37 2.4192e-36 0)
(3.2275e-37 3.4013e-37 0)
(4.33286e-38 5.10551e-38 0)
(6.53988e-39 5.22572e-39 0)
(6.88003e-40 5.59064e-40 0)
(-4.02932e-45 9.78388e-41 0)
(-6.88054e-40 5.5909e-40 0)
(-6.54051e-39 5.22606e-39 0)
(-4.33356e-38 5.10595e-38 0)
(-3.22827e-37 3.4018e-37 0)
(-9.18259e-37 2.41976e-36 0)
(-4.75702e-36 1.83213e-36 0)
(-4.16221e-36 -4.59146e-36 0)
(3.78881e-36 -4.29767e-36 0)
(3.78881e-36 4.29767e-36 0)
(-4.16221e-36 4.59146e-36 0)
(-4.75702e-36 -1.83213e-36 0)
(-9.18259e-37 -2.41976e-36 0)
(-3.22827e-37 -3.40179e-37 0)
(-4.33426e-38 -5.10551e-38 0)
(-6.61781e-39 -5.17648e-39 0)
(-1.39624e-39 3.99356e-42 0)
(-6.68636e-39 5.22135e-39 0)
(-4.39608e-38 5.15606e-38 0)
(-3.28666e-37 3.44846e-37 0)
(-9.5497e-37 2.46554e-36 0)
(-5.03574e-36 2.12065e-36 0)
(-4.7504e-36 -2.51767e-36 0)
(-1.61668e-42 -4.94162e-36 0)
(4.75039e-36 -2.51765e-36 0)
(5.03572e-36 2.12075e-36 0)
(9.54658e-37 2.46273e-36 0)
(3.25529e-37 2.62818e-37 0)
(-7.04756e-39 7.40196e-39 0)
(-4.43844e-38 5.58512e-38 0)
(-8.19263e-38 3.71777e-37 0)
(-2.82985e-37 2.75041e-37 0)
(-2.39866e-37 -7.12663e-37 0)
(2.39866e-37 -7.12663e-37 0)
(2.82984e-37 2.75041e-37 0)
(8.19198e-38 3.71779e-37 0)
(4.4354e-38 5.59308e-38 0)
(6.50661e-39 8.84735e-39 0)
(1.05867e-39 9.49737e-40 0)
(1.15951e-40 1.05017e-40 0)
(-7.51341e-46 1.8932e-41 0)
(-1.15961e-40 1.05023e-40 0)
(-1.05879e-39 9.49807e-40 0)
(-6.50786e-39 8.84821e-39 0)
(-4.43674e-38 5.59403e-38 0)
(-8.20382e-38 3.71884e-37 0)
(-2.84056e-37 2.76e-37 0)
(-2.46491e-37 -7.0371e-37 0)
(1.94439e-37 -6.55773e-37 0)
(1.94439e-37 6.55773e-37 0)
(-2.46491e-37 7.0371e-37 0)
(-2.84056e-37 -2.76e-37 0)
(-8.20382e-38 -3.71884e-37 0)
(-4.43675e-38 -5.59402e-38 0)
(-6.50911e-39 -8.84734e-39 0)
(-1.07227e-39 -9.40208e-40 0)
(-2.35511e-40 7.87239e-43 0)
(-1.08418e-39 9.48875e-40 0)
(-6.61291e-39 8.94197e-39 0)
(-4.53079e-38 5.67849e-38 0)
(-8.74727e-38 3.79772e-37 0)
(-3.21785e-37 3.22979e-37 0)
(-2.82984e-37 -3.88821e-37 0)
(3.67208e-44 -7.61463e-37 0)
(2.82986e-37 -3.88819e-37 0)
(3.21821e-37 3.22977e-37 0)
(8.78249e-38 3.79161e-37 0)
(4.6784e-38 4.26656e-38 0)
(-9.55458e-40 1.21048e-39 0)
(-5.48069e-39 8.70969e-39 0)
(-6.761e-39 5.59421e-38 0)
(-9.31873e-39 4.09585e-38 0)
(-7.30408e-39 -1.07264e-37 0)
(7.30408e-39 -1.07264e-37 0)
(9.31867e-39 4.09585e-38 0)
(6.75985e-39 5.59429e-38 0)
(5.47301e-39 8.72732e-39 0)
(8.59992e-40 1.4531e-39 0)
(1.47295e-40 1.61523e-40 0)
(1.66738e-41 1.84288e-41 0)
(-1.17275e-46 3.39854e-42 0)
(-1.66753e-41 1.84298e-41 0)
(-1.47313e-40 1.61536e-40 0)
(-8.60179e-40 1.45325e-39 0)
(-5.47498e-39 8.72903e-39 0)
(-6.77689e-39 5.59614e-38 0)
(-9.46795e-39 4.11218e-38 0)
(-8.18112e-39 -1.05792e-37 0)
(1.68178e-39 -9.8373e-38 0)
(1.68178e-39 9.8373e-38 0)
(-8.18112e-39 1.05792e-37 0)
(-9.46795e-39 -4.11218e-38 0)
(-6.77689e-39 -5.59614e-38 0)
(-5.475e-39 -8.72902e-39 0)
(-8.60367e-40 -1.4531e-39 0)
(-1.49301e-40 -1.59812e-40 0)
(-3.38901e-41 1.43761e-43 0)
(-1.51052e-40 1.61365e-40 0)
(-8.75253e-40 1.46966e-39 0)
(-5.60526e-39 8.8721e-39 0)
(-7.4876e-39 5.72512e-38 0)
(-1.40639e-38 4.83776e-38 0)
(-9.31867e-39 -5.87396e-38 0)
(3.94373e-44 -1.14829e-37 0)
(9.31927e-39 -5.87397e-38 0)
(1.40726e-38 4.8373e-38 0)
(7.57222e-39 5.71263e-38 0)
(5.9719e-39 6.56325e-39 0)
(-1.09792e-40 1.76699e-40 0)
(-6.69065e-40 1.16068e-39 0)
(-5.79583e-40 7.29834e-39 0)
(6.14883e-40 5.28439e-39 0)
(6.20379e-40 -1.39961e-38 0)
(-6.20357e-40 -1.39961e-38 0)
(-6.14733e-40 5.28467e-39 0)
(5.80672e-40 7.3007e-39 0)
(6.67136e-40 1.18046e-39 0)
(1.09563e-40 2.03892e-40 0)
(1.95117e-41 2.33546e-41 0)
(2.26202e-42 2.7275e-42 0)
(-1.69788e-47 5.12977e-43 0)
(-2.26223e-42 2.72766e-42 0)
(-1.95142e-41 2.33566e-41 0)
(-1.09589e-40 2.03916e-40 0)
(-6.67409e-40 1.18072e-39 0)
(-5.82986e-40 7.30343e-39 0)
(5.94946e-40 5.30828e-39 0)
(5.08482e-40 -1.37894e-38 0)
(-1.30728e-39 -1.2792e-38 0)
(-1.30728e-39 1.2792e-38 0)
(5.08482e-40 1.37894e-38 0)
(5.94946e-40 -5.30828e-39 0)
(-5.82986e-40 -7.30343e-39 0)
(-6.67412e-40 -1.18072e-39 0)
(-1.09616e-40 -2.03892e-40 0)
(-1.97895e-41 -2.30963e-41 0)
(-4.60026e-42 2.19898e-44 0)
(-2.00314e-41 2.33305e-41 0)
(-1.11631e-40 2.06337e-40 0)
(-6.84611e-40 1.20135e-39 0)
(-6.72762e-40 7.48371e-39 0)
(3.96874e-41 6.28213e-39 0)
(6.14734e-40 -7.69282e-39 0)
(9.84388e-45 -1.50146e-38 0)
(-6.14602e-40 -7.69288e-39 0)
(-3.81057e-41 6.28102e-39 0)
(6.87636e-40 7.46349e-39 0)
(7.49144e-40 8.77722e-40 0)
(2.98793e-40 3.10766e-40 0)
(-4.85655e-41 -2.19179e-41 0)
(-3.80776e-41 8.99906e-40 0)
(1.64519e-40 6.59673e-40 0)
(1.50254e-40 -1.76697e-39 0)
(-1.5004e-40 -1.76678e-39 0)
(-1.62817e-40 6.62039e-40 0)
(5.26946e-41 9.214e-40 0)
(7.62835e-41 1.52568e-40 0)
(1.29441e-41 2.71627e-41 0)
(2.36843e-42 3.18123e-42 0)
(2.80053e-43 3.78728e-43 0)
(-2.21846e-48 7.23068e-44 0)
(-2.8008e-43 3.78751e-43 0)
(-2.36875e-42 3.18152e-42 0)
(-1.29475e-41 2.71661e-41 0)
(-7.63179e-41 1.52604e-40 0)
(-5.29812e-41 9.21778e-40 0)
(1.60416e-40 6.65257e-40 0)
(1.36827e-40 -1.73922e-39 0)
(-2.28744e-40 -1.61098e-39 0)
(-2.28744e-40 1.61098e-39 0)
(1.36827e-40 1.73922e-39 0)
(1.60416e-40 -6.65257e-40 0)
(-5.29812e-41 -9.21778e-40 0)
(-7.63182e-41 -1.52604e-40 0)
(-1.29508e-41 -2.71627e-41 0)
(-2.40338e-42 -3.14482e-42 0)
(-5.69815e-43 3.13367e-45 0)
(-2.43375e-42 3.17779e-42 0)
(-1.31999e-41 2.75016e-41 0)
(-7.84002e-41 1.55406e-40 0)
(-6.35223e-41 9.45724e-40 0)
(9.73632e-41 7.90284e-40 0)
(1.62819e-40 -9.73611e-40 0)
(1.67446e-45 -1.89788e-39 0)
(-1.62798e-40 -9.73625e-40 0)
(-9.71324e-41 7.90076e-40 0)
(6.56273e-41 9.427e-40 0)
(8.74675e-41 1.1229e-40 0)
(7.54425e-39 -9.73807e-40 0)
(5.19663e-40 -1.42716e-39 0)
(1.62609e-40 -6.07459e-41 0)
(3.97578e-41 6.07856e-41 0)
(2.22857e-41 -2.06928e-40 0)
(-2.03794e-41 -2.05791e-40 0)
(-2.2624e-41 7.64943e-41 0)
(5.13731e-42 1.07277e-40 0)
(8.47164e-42 1.81672e-41 0)
(1.46898e-42 3.30872e-42 0)
(2.74266e-43 3.94978e-43 0)
(3.29172e-44 4.77336e-44 0)
(-2.71353e-49 9.23276e-45 0)
(-3.29205e-44 4.77366e-44 0)
(-2.74304e-43 3.95016e-43 0)
(-1.46938e-42 3.30917e-42 0)
(-8.47567e-42 1.81719e-41 0)
(-5.1702e-42 1.07325e-40 0)
(2.23571e-41 7.69001e-41 0)
(1.9022e-41 -2.02345e-40 0)
(-2.92747e-41 -1.87134e-40 0)
(-2.92747e-41 1.87134e-40 0)
(1.9022e-41 2.02345e-40 0)
(2.23571e-41 -7.69001e-41 0)
(-5.1702e-42 -1.07325e-40 0)
(-8.47571e-42 -1.81719e-41 0)
(-1.46978e-42 -3.30872e-42 0)
(-2.78426e-43 -3.90328e-43 0)
(-6.70015e-44 4.03691e-46 0)
(-2.82035e-43 3.94534e-43 0)
(-1.49901e-42 3.35136e-42 0)
(-8.7163e-42 1.85191e-41 0)
(-6.36079e-42 1.10234e-40 0)
(1.53882e-41 9.17109e-41 0)
(2.26355e-41 -1.13634e-40 0)
(2.45146e-46 -2.21268e-40 0)
(-2.26326e-41 -1.13637e-40 0)
(-1.53578e-41 9.16794e-41 0)
(6.63143e-42 1.09833e-40 0)
(9.87662e-42 1.32653e-41 0)
(1.49524e-37 4.67231e-38 0)
(1.46336e-38 -1.19853e-38 0)
(1.67816e-39 -1.36268e-39 0)
(1.45735e-40 -1.00049e-40 0)
(1.43955e-41 -3.09164e-41 0)
(-1.40007e-42 -2.3531e-41 0)
(-2.50234e-42 8.46972e-42 0)
(5.10108e-43 1.19921e-41 0)
(8.90072e-43 2.06532e-42 0)
(1.57097e-43 3.82663e-43 0)
(2.97731e-44 4.63385e-44 0)
(3.61961e-45 5.66368e-45 0)
(-2.72684e-50 1.10625e-45 0)
(-3.61992e-45 5.66408e-45 0)
(-2.97763e-44 4.63435e-44 0)
(-1.57123e-43 3.82724e-43 0)
(-8.90227e-43 2.06601e-42 0)
(-5.09254e-43 1.19999e-41 0)
(2.5387e-42 8.55138e-42 0)
(2.15447e-42 -2.26111e-41 0)
(-3.23526e-42 -2.08871e-41 0)
(-3.23526e-42 2.08871e-41 0)
(2.15447e-42 2.26111e-41 0)
(2.5387e-42 -8.55138e-42 0)
(-5.09255e-43 -1.19999e-41 0)
(-8.90231e-43 -2.066e-42 0)
(-1.57169e-43 -3.8267e-43 0)
(-3.02342e-44 -4.57817e-44 0)
(-7.36989e-45 4.86882e-47 0)
(-3.06345e-44 4.62853e-44 0)
(-1.60379e-43 3.87723e-43 0)
(-9.16298e-43 2.10667e-42 0)
(-6.36103e-43 1.23357e-41 0)
(1.80971e-42 1.02285e-41 0)
(2.56893e-42 -1.27292e-41 0)
(3.14662e-47 -2.47652e-41 0)
(-2.56856e-42 -1.27295e-41 0)
(-1.80609e-42 1.02242e-41 0)
(6.67534e-43 1.2286e-41 0)
(1.05032e-42 1.49889e-42 0)
(2.28754e-34 -1.34306e-33 0)
(6.88707e-34 -3.43496e-34 0)
(1.26646e-34 -2.3554e-34 0)
(4.21723e-35 -3.42317e-35 0)
(5.82397e-36 -5.13378e-36 0)
(9.06185e-37 -5.5419e-37 0)
(1.01534e-37 -6.07748e-38 0)
(1.16427e-38 -5.68536e-39 0)
(1.12305e-39 -5.29484e-40 0)
(1.07001e-40 -4.61973e-41 0)
(8.83013e-42 -2.61863e-42 0)
(9.05095e-43 2.41259e-42 0)
(4.06745e-43 -7.23825e-43 0)
(-1.07273e-43 -1.74411e-42 0)
(-2.16562e-43 7.49034e-43 0)
(4.31811e-44 1.0459e-42 0)
(7.92339e-44 2.0226e-43 0)
(1.56709e-44 4.02306e-44 0)
(3.15082e-45 5.36551e-45 0)
(4.23815e-46 6.97516e-46 0)
(5.52701e-47 7.48527e-47 0)
(5.95288e-48 7.7216e-48 0)
(6.14899e-49 7.08782e-49 0)
(6.1499e-50 5.73632e-50 0)
(6.17509e-50 -5.7755e-50 0)
(6.1769e-49 -7.1342e-49 0)
(5.97274e-48 -7.77818e-48 0)
(5.52777e-47 -7.54852e-47 0)
(4.19903e-46 -7.04289e-46 0)
(3.04863e-45 -5.42871e-45 0)
(1.36527e-44 -4.07906e-44 0)
(4.53089e-44 -2.05964e-43 0)
(-4.81517e-43 -1.06637e-42 0)
(-7.84252e-42 -7.05271e-43 0)
(-1.03959e-40 3.75078e-42 0)
(-1.37552e-39 3.82153e-41 0)
(-1.68637e-38 4.64041e-40 0)
(-2.05341e-37 5.10613e-39 0)
(-2.23453e-36 4.56934e-38 0)
(-2.47877e-35 6.45251e-38 0)
(-2.2842e-34 -9.64771e-36 0)
(-2.25948e-33 -3.16399e-34 0)
(-1.49126e-32 -6.30039e-33 0)
(-1.17929e-31 -8.74535e-32 0)
(5.10635e-34 -6.89767e-31 0)
(1.18209e-31 -8.75385e-32 0)
(7.34766e-33 -8.02785e-33 0)
(1.22231e-32 -2.69393e-33 0)
(1.71419e-33 -2.08947e-33 0)
(3.58649e-34 -2.66677e-34 0)
(4.31561e-35 -3.86253e-35 0)
(5.90127e-36 -3.94947e-36 0)
(6.20769e-37 -4.23813e-37 0)
(6.74583e-38 -3.84761e-38 0)
(6.2969e-39 -3.5199e-39 0)
(5.84873e-40 -2.90272e-40 0)
(4.91479e-41 -2.3541e-41 0)
(4.05858e-42 -1.60182e-42 0)
(3.31319e-43 -1.79758e-43 0)
(1.64631e-44 -1.27861e-43 0)
(-1.13875e-44 5.02965e-44 0)
(2.64506e-45 7.12999e-44 0)
(4.72593e-45 1.39353e-44 0)
(9.45138e-46 2.7875e-45 0)
(1.92644e-46 3.7432e-46 0)
(2.61987e-47 4.88159e-47 0)
(3.45081e-48 5.25876e-48 0)
(3.74864e-49 5.43246e-49 0)
(3.89995e-50 4.99535e-50 0)
(3.92913e-51 4.04433e-51 0)
(3.98647e-51 -4.05418e-51 0)
(3.99703e-50 -4.99635e-50 0)
(3.90146e-49 -5.41427e-49 0)
(3.69275e-48 -5.20008e-48 0)
(2.99774e-47 -4.75032e-47 0)
(2.51501e-46 -3.48765e-46 0)
(1.83852e-45 -2.33718e-45 0)
(1.80904e-44 -6.50218e-45 0)
(1.94853e-43 4.48816e-44 0)
(2.68945e-42 1.67145e-42 0)
(3.60088e-41 2.47087e-41 0)
(4.67663e-40 3.30582e-40 0)
(5.65947e-39 4.28926e-39 0)
(6.70513e-38 5.00586e-38 0)
(7.19081e-37 5.19535e-37 0)
(7.66941e-36 2.92373e-36 0)
(6.9551e-35 -3.92253e-35 0)
(6.46822e-34 -2.09512e-33 0)
(4.21848e-33 -4.88836e-32 0)
(2.95755e-32 -8.21302e-31 0)
(1.16214e-32 -9.3759e-30 0)
(-1.63308e-32 -8.239e-31 0)
(1.31088e-31 -8.16795e-32 0)
(1.52845e-31 -7.7278e-33 0)
(1.54267e-32 -4.93992e-34 0)
(3.11699e-33 -2.37645e-35 0)
(3.37295e-34 -7.57294e-37 0)
(4.49739e-35 -6.11171e-39 0)
(4.50379e-36 1.98855e-39 0)
(4.80359e-37 2.33037e-40 0)
(4.35974e-38 2.12743e-41 0)
(3.99283e-39 1.64978e-42 0)
(3.29592e-40 1.29182e-43 0)
(2.6856e-41 1.99687e-44 0)
(2.03403e-42 -2.29996e-45 0)
(1.50075e-43 -7.1967e-45 0)
(9.73199e-45 3.10576e-45 0)
(8.72097e-46 4.36103e-45 0)
(3.35774e-46 8.61845e-46 0)
(6.12853e-47 1.74309e-46 0)
(1.21309e-47 2.36385e-47 0)
(1.64511e-48 3.10779e-48 0)
(2.16569e-49 3.37269e-49 0)
(2.35757e-50 3.50417e-50 0)
(2.45598e-51 3.23922e-51 0)
(2.61396e-52 2.63101e-52 0)
(5.071e-52 -2.66207e-52 0)
(7.19343e-51 -3.2838e-51 0)
(1.07601e-49 -3.57272e-50 0)
(1.66864e-48 -3.47747e-49 0)
(2.59363e-47 -3.27027e-48 0)
(4.07612e-46 -2.61352e-47 0)
(6.26419e-45 -2.12981e-46 0)
(9.49487e-44 -1.44727e-45 0)
(1.38167e-42 -1.31715e-44 0)
(1.96142e-41 -1.30445e-43 0)
(2.63734e-40 -1.8012e-42 0)
(3.45944e-39 -2.41245e-41 0)
(4.22572e-38 -3.10596e-40 0)
(5.077e-37 -3.47021e-39 0)
(5.51195e-36 -3.07204e-38 0)
(6.00218e-35 3.21461e-38 0)
(5.53962e-34 9.76668e-36 0)
(5.33719e-33 3.17958e-34 0)
(3.59053e-32 6.75401e-33 0)
(2.72799e-31 1.07423e-31 0)
(1.55554e-31 1.1731e-30 0)
(-1.01689e-31 1.07261e-31 0)
(1.10502e-32 -8.0107e-32 0)
(1.03266e-32 -5.90232e-33 0)
(1.49089e-33 1.52079e-33 0)
(3.20767e-34 2.38152e-34 0)
(3.93881e-35 3.75649e-35 0)
(5.47516e-36 3.92427e-36 0)
(5.82453e-37 4.24365e-37 0)
(6.38602e-38 3.86012e-38 0)
(6.00076e-39 3.53248e-39 0)
(5.60407e-40 2.91161e-40 0)
(4.73152e-41 2.36888e-41 0)
(3.91195e-42 1.79132e-42 0)
(3.00937e-43 1.3223e-43 0)
(2.25045e-44 8.81051e-45 0)
(1.54971e-45 8.21955e-46 0)
(1.18579e-46 3.1044e-46 0)
(2.37891e-47 5.62487e-47 0)
(3.83435e-48 1.10484e-47 0)
(7.24155e-49 1.49364e-48 0)