/*--------------------------------*- C++ -*----------------------------------*\
| =========                 |                                                 |
| \\      /  F ield         | OpenFOAM: The Open Source CFD Toolbox           |
|  \\    /   O peration     | Version:  2.4.0                                 |
|   \\  /    A nd           | Web:      www.OpenFOAM.org                      |
|    \\/     M anipulation  |                                                 |
\*---------------------------------------------------------------------------*/
FoamFile
{
    version     2.0;
    format      ascii;
    class       surfaceScalarField;
    location    "0.65";
    object      phi;
}
// * * * * * * * * * * * * * * * * * * * * * * * * * * * * * * * * * * * * * //

dimensions      [0 3 -1 0 0 0 0];

internalField   nonuniform List<scalar> 
3731
(
2.08532e-44
-3.03118e-42
-4.4727e-43
2.14636e-43
-2.49911e-41
-3.67857e-42
1.82056e-42
-1.96924e-40
-2.88605e-41
1.46006e-41
-1.4529e-39
-2.12532e-40
1.12085e-40
-1.03115e-38
-1.49939e-39
7.97344e-40
-6.64628e-38
-9.67245e-39
5.43684e-39
-4.21309e-37
-6.05094e-38
3.25986e-38
-2.23566e-36
-3.23989e-37
1.90529e-37
-1.29709e-35
-1.78754e-36
8.03078e-37
-4.64474e-35
-6.6822e-36
-2.42661e-39
-5.26558e-41
-1.37594e-38
-3.31912e-40
-1.98738e-38
-2.7037e-39
-4.89865e-37
-2.1288e-39
8.64199e-46
5.22224e-39
4.89865e-37
5.22224e-39
1.98739e-38
-2.1288e-39
1.37616e-38
-2.70366e-39
2.43281e-39
-3.31778e-40
2.56526e-40
-5.17835e-41
3.24349e-41
-5.51605e-42
2.88798e-42
-6.36756e-43
-2.88824e-42
-1.20502e-43
-3.24378e-41
-6.36799e-43
-2.56557e-40
-5.51655e-42
-2.43315e-39
-5.17893e-41
-1.37649e-38
-3.31839e-40
-1.99067e-38
-2.7043e-39
-4.90124e-37
-2.13438e-39
-2.46562e-39
5.16982e-39
4.75843e-37
4.88488e-39
-2.46562e-39
-4.88488e-39
-4.90124e-37
-5.16982e-39
-1.99067e-38
2.13438e-39
-1.37649e-38
2.7043e-39
-2.43318e-39
3.31839e-40
-2.56901e-40
5.17834e-41
-3.57231e-41
5.45534e-42
-3.60022e-41
-5.30654e-45
-2.59783e-40
-5.51019e-42
-2.46239e-39
-5.23536e-41
-1.39886e-38
-3.36717e-40
-2.20797e-38
-2.75051e-39
-5.01421e-37
-2.41373e-39
-8.31811e-39
2.80351e-39
8.31777e-39
5.51216e-39
5.01418e-37
2.80346e-39
2.20476e-38
-2.41435e-39
1.38106e-38
-2.75471e-39
-3.5889e-40
-6.76402e-40
5.81046e-41
-3.77456e-39
4.82879e-40
-2.63332e-38
3.75303e-39
-4.37102e-38
2.90585e-39
4.40817e-46
-7.21942e-39
4.37102e-38
-7.21942e-39
2.63333e-38
2.90585e-39
3.77545e-39
3.75302e-39
6.80438e-40
4.8331e-40
8.16445e-41
6.93348e-41
1.05693e-41
7.0753e-42
9.96953e-43
7.6114e-43
-9.97051e-43
1.37758e-43
-1.05703e-41
7.61184e-43
-8.16558e-41
7.07583e-42
-6.80558e-40
6.93412e-41
-3.77657e-39
4.83379e-40
-2.6344e-38
3.75378e-39
-4.3793e-38
2.913e-39
-6.91139e-40
-7.14932e-39
3.9852e-38
-6.72897e-39
-6.91139e-40
6.72897e-39
-4.3793e-38
7.14932e-39
-2.6344e-38
-2.913e-39
-3.77658e-39
-3.75378e-39
-6.8057e-40
-4.83379e-40
-8.17772e-41
-6.93347e-41
-1.17082e-41
-7.00593e-42
-1.1806e-41
5.80624e-45
-8.27722e-41
7.06891e-42
-6.90023e-40
7.00202e-41
-3.84752e-39
4.89692e-40
-2.69416e-38
3.81597e-39
-4.68773e-38
3.32621e-39
-2.31662e-38
-3.88676e-39
2.31661e-38
-7.64622e-39
4.68763e-38
-3.88671e-39
2.69302e-38
3.32658e-39
3.7797e-39
3.81293e-39
3.73323e-40
-1.51395e-40
1.81798e-41
-6.45712e-40
1.44318e-40
-3.42451e-39
9.37465e-40
-5.42991e-39
6.85784e-40
3.86715e-47
-1.79226e-39
5.42991e-39
-1.79226e-39
3.42451e-39
6.85783e-40
6.45826e-40
9.3746e-40
1.51525e-40
1.44456e-40
2.07092e-41
2.18667e-41
2.97889e-42
2.40039e-42
2.98136e-43
2.67144e-43
-2.9817e-43
5.03525e-44
-2.97925e-42
2.67161e-43
-2.0713e-41
2.40059e-42
-1.51564e-40
2.18691e-41
-6.46166e-40
1.44481e-40
-3.42753e-39
9.37727e-40
-5.45096e-39
6.88209e-40
-1.54546e-40
-1.77012e-39
4.76304e-39
-1.64538e-39
-1.54546e-40
1.64538e-39
-5.45096e-39
1.77012e-39
-3.42753e-39
-6.88209e-40
-6.46166e-40
-9.37727e-40
-1.51567e-40
-1.44481e-40
-2.07515e-41
-2.18667e-41
-3.32232e-42
-2.37503e-42
-3.35308e-42
2.16712e-45
-2.1049e-41
2.398e-42
-1.5421e-40
2.21061e-41
-6.63855e-40
1.46614e-40
-3.55801e-39
9.57168e-40
-5.94224e-39
8.10531e-40
-2.91218e-39
-9.79546e-40
2.91216e-39
-1.91919e-39
5.9421e-39
-9.79529e-40
3.55655e-39
8.10653e-40
6.55145e-40
9.56239e-40
1.11326e-40
-2.43779e-41
4.85852e-42
-8.17657e-41
3.60159e-41
-3.39813e-40
2.18969e-40
-5.15937e-40
1.5676e-40
-4.3684e-48
-4.18444e-40
5.15937e-40
-4.18444e-40
3.39812e-40
1.5676e-40
8.17707e-41
2.18969e-40
2.42942e-41
3.6067e-41
3.71857e-42
5.87973e-42
5.76569e-43
6.80762e-43
6.06015e-44
7.94287e-44
-6.06092e-44
1.54964e-44
-5.76649e-43
7.94344e-44
-3.71938e-42
6.80828e-43
-2.43023e-41
5.88049e-42
-8.18401e-41
3.60748e-41
-3.40397e-40
2.19049e-40
-5.19725e-40
1.57449e-40
-2.48797e-41
-4.12485e-40
4.30378e-40
-3.81689e-40
-2.48797e-41
3.81689e-40
-5.19725e-40
4.12485e-40
-3.40397e-40
-1.57449e-40
-8.18402e-41
-2.19049e-40
-2.43032e-41
-3.60747e-41
-3.72755e-42
-5.87973e-42
-6.46809e-43
-6.72953e-43
-6.53279e-43
6.8474e-46
-3.788e-42
6.80005e-43
-2.48111e-41
5.9506e-42
-8.49734e-41
3.6676e-41
-3.60903e-40
2.2424e-40
-5.76616e-40
1.87557e-40
-2.79133e-40
-2.30271e-40
2.79131e-40
-4.49857e-40
5.76609e-40
-2.30269e-40
3.60837e-40
1.8757e-40
8.4431e-41
2.23881e-40
2.7476e-41
-3.71341e-42
9.33748e-43
-9.23216e-42
6.6192e-42
-2.568e-41
3.77967e-41
-3.58189e-41
2.64419e-41
-3.93571e-48
-7.21669e-41
3.58189e-41
-7.21669e-41
2.56795e-41
2.6442e-41
9.22943e-42
3.77971e-41
3.67516e-42
6.63172e-42
6.18418e-43
1.13959e-42
1.02874e-43
1.38123e-43
1.12388e-44
1.66807e-44
-1.12404e-44
3.34975e-45
-1.0289e-43
1.6682e-44
-6.18579e-43
1.38138e-43
-3.67672e-42
1.13976e-42
-9.24238e-42
6.63341e-42
-2.57841e-41
3.78138e-41
-3.64503e-41
2.65818e-41
-3.77976e-42
-7.10106e-41
2.59581e-41
-6.53954e-41
-3.77976e-42
6.53954e-41
-3.64503e-41
7.10106e-41
-2.57841e-41
-2.65818e-41
-9.24239e-42
-3.78138e-41
-3.67688e-42
-6.63339e-42
-6.20152e-43
-1.13959e-42
-1.15977e-43
-1.36435e-43
-1.17215e-43
1.50934e-46
-6.31361e-43
1.37956e-43
-3.76697e-42
1.15442e-42
-9.75623e-42
6.75482e-42
-2.88278e-41
3.88136e-41
-4.18999e-41
3.20572e-41
-1.95984e-41
-3.9985e-41
1.95985e-41
-7.79067e-41
4.19027e-41
-3.99847e-41
2.88543e-41
3.20566e-41
9.85633e-42
3.87257e-41
4.98432e-42
-5.12171e-43
1.64472e-43
-9.78361e-43
1.11377e-42
-1.36258e-42
6.14509e-42
-1.4347e-42
4.24179e-42
-6.04249e-49
-1.1738e-41
1.4347e-42
-1.1738e-41
1.36246e-42
4.24187e-42
9.77529e-43
6.14571e-42
5.03785e-43
1.11982e-42
9.12404e-44
2.01799e-43
1.59723e-44
2.53347e-44
1.79995e-45
3.15486e-45
-1.80023e-45
6.48348e-46
-1.5975e-44
3.15512e-45
-9.12675e-44
2.53377e-44
-5.04042e-43
2.01832e-43
-9.7961e-43
1.12014e-42
-1.37872e-42
6.14887e-42
-1.52802e-42
4.26752e-42
-5.20042e-43
-1.15331e-41
3.63842e-43
-1.05925e-41
-5.20042e-43
1.05925e-41
-1.52802e-42
1.15331e-41
-1.37872e-42
-4.26752e-42
-9.79613e-43
-6.14887e-42
-5.0407e-43
-1.12014e-42
-9.1527e-44
-2.01799e-43
-1.80805e-44
-2.50079e-44
-1.82837e-44
2.97189e-47
-9.33218e-44
2.53018e-44
-5.17987e-43
2.04594e-43
-1.0546e-42
1.14232e-42
-1.78918e-42
6.32501e-42
-1.98551e-42
5.18239e-42
-8.11645e-43
-6.53282e-42
8.11716e-43
-1.27013e-41
1.98641e-42
-6.53284e-42
1.79733e-42
5.18162e-42
1.08942e-42
6.30589e-42
8.29874e-43
-6.70957e-44
5.19394e-44
-1.06518e-43
1.3603e-43
-1.07057e-44
8.8368e-43
8.04461e-44
6.0437e-43
3.96401e-48
-1.69632e-42
-8.04171e-44
-1.69627e-42
1.08941e-44
6.04895e-43
1.06583e-43
8.88002e-43
6.73923e-44
1.67452e-43
1.28358e-44
3.13025e-44
2.33498e-45
4.04831e-45
2.69265e-46
5.16497e-46
-2.69309e-46
1.08249e-46
-2.33541e-45
5.16543e-46
-1.284e-44
4.04882e-45
-6.74317e-44
3.13081e-44
-1.06896e-43
1.67506e-43
-1.32726e-44
8.88518e-43
6.72689e-44
6.08998e-43
-6.97709e-44
-1.66445e-42
-2.00149e-43
-1.52472e-42
-6.97709e-44
1.52472e-42
6.72689e-44
1.66445e-42
-1.32726e-44
-6.08998e-43
-1.06896e-43
-8.88518e-43
-6.74359e-44
-1.67506e-43
-1.28797e-44
-3.13025e-44
-2.65158e-45
-3.99372e-45
-2.68257e-45
5.03161e-48
-1.31482e-44
4.04272e-45
-6.94626e-44
3.17588e-44
-1.17354e-43
1.71037e-43
-6.75164e-44
9.15718e-43
3.04568e-44
7.44631e-43
3.90682e-44
-9.48004e-43
-3.90497e-44
-1.83964e-42
-3.02651e-44
-9.48016e-43
6.91619e-44
7.44424e-43
1.24522e-43
9.12291e-43
1.22597e-43
3.0756e-44
-1.60493e-43
-5.70836e-45
-2.1458e-43
1.16241e-44
9.13708e-44
2.74197e-44
7.92213e-44
3.43289e-47
-2.33876e-43
-2.71359e-44
-2.33615e-43
-9.44686e-45
8.24854e-44
1.18564e-44
1.2224e-43
8.52689e-45
2.36247e-44
1.68341e-45
4.55015e-45
3.14762e-46
6.02155e-46
3.69748e-47
7.83659e-47
-3.69811e-47
1.66831e-47
-3.14824e-46
7.83731e-47
-1.68401e-45
6.02236e-46
-8.5324e-45
4.55102e-45
-1.18994e-44
2.36331e-44
9.1263e-45
1.22319e-43
2.54128e-44
8.30977e-44
-8.84776e-45
-2.28963e-43
-4.07222e-44
-2.09356e-43
-8.84776e-45
2.09356e-43
2.54128e-44
2.28963e-43
9.1263e-45
-8.30977e-44
-1.18995e-44
-1.22319e-43
-8.533e-45
-2.36331e-44
-1.68957e-45
-4.55014e-45
-3.58375e-46
-5.9374e-46
-3.62694e-46
7.8446e-49
-1.72643e-45
6.01282e-46
-8.80533e-45
4.61923e-45
-1.32621e-44
2.41568e-44
2.32589e-45
1.26258e-43
2.24042e-44
1.02094e-43
1.41826e-44
-1.30958e-43
-1.41792e-44
-2.53738e-43
-2.23722e-44
-1.30961e-43
-2.06168e-45
1.02052e-43
1.44115e-44
1.25699e-43
1.71109e-44
8.12488e-43
4.39421e-42
8.55391e-44
-1.70962e-42
2.3758e-44
-2.00408e-43
6.76076e-45
-8.95658e-45
2.7232e-46
-3.15621e-44
-4.25707e-45
-3.0101e-44
-1.77579e-45
1.04826e-44
1.35136e-45
1.56857e-44
1.04366e-45
3.09873e-45
2.11125e-46
6.10817e-46
4.02887e-47
8.24019e-47
4.80025e-48
1.08955e-47
-4.8011e-48
2.35035e-48
-4.0297e-47
1.08966e-47
-2.11203e-46
8.24138e-47
-1.04437e-45
6.10944e-46
-1.35679e-45
3.09996e-45
1.73683e-45
1.56972e-44
4.06508e-45
1.05749e-44
-1.08474e-45
-2.936e-44
-5.84972e-45
-2.67993e-44
-1.08474e-45
2.67993e-44
4.06508e-45
2.936e-44
1.73683e-45
-1.05749e-44
-1.3568e-45
-1.56972e-44
-1.04445e-45
-3.09995e-45
-2.11937e-46
-6.10819e-46
-4.59654e-47
-8.12165e-47
-4.65328e-47
1.11566e-49
-2.16721e-46
8.22778e-47
-1.07922e-45
6.20405e-46
-1.52683e-45
3.17144e-45
9.09913e-46
1.62245e-44
3.79863e-45
1.30519e-44
2.26115e-45
-1.6856e-44
-2.26061e-45
-3.26161e-44
-3.7939e-45
-1.68566e-44
-8.71961e-46
1.30449e-44
1.69141e-45
1.61426e-44
2.2247e-45
1.44064e-41
-2.7149e-41
1.59108e-42
-2.94664e-42
1.95254e-43
-2.71983e-43
1.88801e-44
-2.10406e-44
1.69055e-45
-5.93357e-45
-4.03732e-46
-4.27452e-45
-2.2646e-46
1.4288e-45
1.5243e-46
2.16497e-45
1.21502e-46
4.34848e-46
2.50388e-47
8.72344e-47
4.8523e-48
1.19404e-47
5.8504e-49
1.59805e-48
-5.85129e-49
3.48232e-49
-4.85306e-48
1.59822e-48
-2.50444e-47
1.19423e-47
-1.2153e-46
8.7256e-47
-1.52265e-46
4.3507e-46
2.32765e-46
2.16726e-45
5.1879e-46
1.45075e-45
-1.26392e-46
-4.05131e-45
-7.21809e-46
-3.69313e-45
-1.26392e-46
3.69313e-45
5.1879e-46
4.05131e-45
2.32765e-46
-1.45075e-45
-1.52266e-46
-2.16726e-45
-1.2154e-46
-4.35068e-46
-2.5135e-47
-8.72373e-47
-5.54535e-48
-1.17649e-47
-5.61518e-48
1.66505e-50
-2.5718e-47
1.1922e-47
-1.25718e-46
8.86412e-47
-1.7235e-46
4.45409e-46
1.37044e-46
2.24238e-45
4.93601e-46
1.79681e-45
2.88632e-46
-2.33266e-45
-2.88557e-46
-4.509e-45
-4.9297e-46
-2.33276e-45
-1.3212e-46
1.79564e-45
1.93579e-46
2.22987e-45
3.10058e-46
7.80743e-36
-2.93554e-35
-5.47686e-35
8.66143e-36
-4.34476e-37
-1.97718e-33
-4.22482e-35
-1.39981e-36
1.76375e-35
2.22442e-33
6.26551e-35
-1.7228e-35
1.48482e-36
4.45883e-35
6.34918e-35
7.79515e-37
8.71652e-36
7.83057e-35
1.19006e-35
9.80776e-36
-1.06693e-36
1.34839e-34
2.04912e-35
-1.24451e-36
-1.69716e-35
2.68866e-34
1.25875e-34
-1.93144e-35
-2.96645e-35
3.66741e-33
3.08742e-34
-3.36349e-35
-9.11282e-37
3.89302e-33
3.14339e-34
-1.03167e-36
2.95707e-35
1.31985e-34
3.35263e-35
1.95834e-35
2.0516e-35
3.5184e-36
2.62302e-36
4.21082e-37
3.61842e-37
6.30382e-38
3.61039e-38
9.67363e-38
2.79794e-39
9.38985e-37
-1.05675e-38
7.42927e-36
-1.04012e-37
7.02032e-35
-1.05756e-36
3.87912e-34
-7.44744e-36
5.91124e-34
-6.06208e-35
1.31117e-32
-5.41369e-35
5.91123e-34
5.41369e-35
3.87905e-34
6.06206e-35
7.01524e-35
7.43411e-36
7.016e-36
7.43003e-37
5.69396e-37
-5.30185e-36
4.60239e-37
-1.19466e-34
4.22589e-37
-5.40493e-36
5.16016e-38
-3.14467e-37
7.33609e-39
-1.32589e-38
1.00339e-39
2.70841e-40
1.7591e-39
4.82907e-39
2.73329e-38
1.27095e-36
-4.08647e-36
2.1215e-37
-2.65665e-37
2.55816e-38
-1.45681e-38
-7.15357e-40
3.28614e-39
-2.4086e-37
-3.06259e-36
-3.49076e-38
-1.85115e-37
-3.90343e-39
-8.35183e-39
-2.35107e-40
-3.83926e-40
-1.73863e-36
4.61201e-36
-2.43524e-37
2.80978e-37
-2.71523e-38
1.24984e-38
3.04576e-40
-2.62269e-39
1.18759e-37
4.8063e-36
2.60143e-38
3.0294e-37
3.85998e-39
1.47548e-38
5.21799e-40
6.30712e-40
1.57776e-36
1.33861e-36
2.64575e-37
1.27708e-37
3.2803e-38
1.24541e-38
1.17362e-39
4.21762e-39
-2.38188e-37
2.35287e-36
-4.33801e-38
2.27969e-37
-5.83443e-39
2.25423e-38
2.13156e-39
-7.85145e-40
-3.22782e-36
1.02078e-35
-5.47737e-37
6.99739e-37
-6.89419e-38
4.04833e-38
2.10619e-39
-8.90278e-39
-5.49225e-36
2.3335e-35
-9.24131e-37
1.45568e-36
-1.15131e-37
6.54616e-38
1.53037e-39
-1.47892e-38
-1.66817e-37
2.37297e-35
-2.79637e-38
1.47786e-36
-3.46775e-39
6.61204e-38
1.50232e-39
-4.44345e-40
5.47231e-36
1.06326e-35
9.20716e-37
7.22134e-37
1.14693e-37
4.08503e-38
2.02943e-39
1.47327e-38
3.42799e-36
2.18062e-36
5.82054e-37
2.05128e-37
7.32905e-38
1.9556e-38
1.80143e-39
9.46934e-39
4.96559e-37
5.18558e-37
8.89909e-38
6.10225e-38
1.18425e-38
7.27811e-39
7.71577e-40
1.58048e-39
7.15288e-38
7.03538e-38
1.36778e-38
9.178e-39
1.90357e-39
1.18103e-39
1.32333e-40
2.64408e-40
7.44604e-39
1.17534e-38
1.48619e-39
1.77486e-39
2.13534e-40
2.46884e-40
3.03311e-41
3.04498e-41
-3.23633e-40
1.89112e-38
-8.91356e-41
3.83346e-39
-2.94518e-41
5.55861e-40
7.72032e-41
-4.93069e-42
-1.26708e-38
1.74242e-37
-2.79152e-39
3.39278e-38
-5.76311e-40
4.69834e-39
6.33371e-40
-8.87618e-41
-1.20924e-37
1.33156e-36
-2.59211e-38
2.34283e-37
-5.13583e-39
3.02941e-38
3.84364e-39
-7.68582e-40
-1.21491e-36
1.12749e-35
-2.45995e-37
1.75194e-36
-4.66078e-38
2.0369e-37
2.39035e-38
-6.70144e-39
-8.4803e-36
5.91233e-35
-1.64052e-36
6.7344e-36
-2.90499e-37
5.96203e-37
5.20806e-38
-3.98739e-38
-6.73885e-35
4.14926e-34
-1.13805e-35
3.49817e-35
-1.91265e-36
2.25184e-36
1.10615e-37
-2.48385e-37
-6.00139e-35
7.31808e-34
-9.96259e-36
5.95912e-35
-1.66416e-36
3.66652e-36
1.58325e-37
-2.14525e-37
6.00139e-35
4.14927e-34
9.96257e-36
3.49825e-35
1.66414e-36
2.25202e-36
1.10651e-37
2.14522e-37
6.73882e-35
5.91305e-35
1.13802e-35
6.74291e-36
1.91251e-36
5.97936e-37
5.24101e-38
2.48354e-37
8.47137e-36
1.13255e-35
1.63702e-36
1.81154e-36
2.89062e-37
2.15268e-37
2.59593e-38
3.95849e-38
1.02042e-36
1.74412e-36
1.94024e-37
7.09188e-37
3.05609e-38
1.10705e-37
1.73907e-38
3.8279e-39
-3.05062e-36
5.42578e-37
-5.70967e-37
4.56976e-37
-1.23482e-37
7.51013e-38
1.24326e-38
-1.90656e-38
-7.05936e-36
-3.50614e-37
-4.87394e-36
-4.19383e-37
-9.88572e-37
-6.98405e-38
-1.15799e-38
-1.37709e-37
-3.17042e-36
-4.1069e-37
-5.96615e-37
-4.74457e-37
-1.28484e-37
-8.00495e-38
-1.20845e-38
-1.97202e-38
-1.94356e-37
-5.04521e-38
-5.17473e-38
-5.91684e-38
-1.51352e-38
-8.90322e-39
1.13328e-38
-1.56482e-39
-8.47838e-39
-6.73086e-39
-1.29014e-39
-5.16644e-39
9.16386e-39
2.24449e-38
1.26492e-37
1.79744e-38
3.53162e-39
1.83716e-39
2.03378e-38
1.89467e-38
1.06812e-37
1.49969e-37
8.42812e-37
2.50207e-37
3.50585e-38
1.52745e-38
2.03217e-37
1.23058e-37
1.18498e-36
9.88963e-37
5.83894e-36
3.69426e-36
2.12684e-37
1.38477e-36
9.38615e-36
4.21576e-35
3.19279e-40
-3.08487e-41
3.06462e-41
2.94534e-43
2.66709e-42
8.15939e-44
2.2756e-43
5.84967e-45
1.81194e-44
-1.03269e-46
1.33891e-45
-3.02707e-46
7.33644e-47
1.00364e-46
2.5218e-47
1.54949e-46
1.50545e-47
3.1665e-47
3.07133e-48
6.50706e-48
5.97173e-49
9.06533e-49
7.24752e-50
1.23473e-49
-7.23439e-50
2.7278e-50
-5.95121e-49
1.23497e-49
-3.03862e-48
9.06831e-49
-1.45568e-47
6.51057e-48
-1.78841e-47
3.17031e-47
2.96003e-47
1.55323e-46
6.46246e-47
1.03356e-46
-1.5153e-47
-2.90244e-46
-8.86683e-47
-2.64267e-46
-1.5153e-47
2.64267e-46
6.46246e-47
2.90244e-46
2.96003e-47
-1.03356e-46
-1.78842e-47
-1.55323e-46
-1.4558e-47
-3.17029e-47
-3.04991e-48
-6.50908e-48
-6.80848e-49
-8.92925e-49
-6.89541e-49
1.31916e-51
-3.122e-48
9.05217e-49
-1.50696e-47
6.61734e-48
-2.03143e-47
3.2486e-47
1.81768e-47
1.60911e-46
6.19782e-47
1.28413e-46
3.59772e-47
-1.67655e-46
-3.59668e-47
-3.23664e-46
-6.18933e-47
-1.67664e-46
-1.7516e-47
1.28312e-46
2.32183e-47
1.59921e-46
2.23323e-47
-2.622e-41
4.87373e-42
-1.1688e-42
1.15546e-42
1.11615e-44
8.85521e-44
1.15124e-44
4.72583e-45
1.71236e-45
8.44796e-47
1.9341e-46
-3.28467e-47
1.71285e-47
5.40482e-48
2.87229e-48
1.1347e-47
1.09897e-48
2.36976e-48
2.13798e-49
4.93131e-49
4.11087e-50
6.93448e-50
5.00666e-51
9.49753e-51
-4.9481e-51
2.10958e-51
-4.03236e-50
9.50863e-51
-2.03029e-49
6.94983e-50
-9.59923e-49
4.95114e-49
-1.16757e-48
2.39366e-48
1.9879e-48
1.16014e-47
4.30503e-48
7.68314e-48
-1.00032e-48
-2.16676e-47
-5.88431e-48
-1.9709e-47
-1.00032e-48
1.9709e-47
4.30503e-48
2.16676e-47
1.9879e-48
-7.68314e-48
-1.16758e-48
-1.16014e-47
-9.60011e-49
-2.39365e-48
-2.03811e-49
-4.94998e-49
-4.62037e-50
-6.84224e-50
-4.68045e-50
1.02287e-52
-2.08745e-49
6.93732e-50
-9.94608e-49
5.03328e-49
-1.32936e-48
2.45361e-48
1.2375e-48
1.20258e-47
4.14359e-48
9.57122e-48
2.39934e-48
-1.25389e-47
-2.39856e-48
-2.41928e-47
-4.13744e-48
-1.25397e-47
-1.19025e-48
9.56282e-48
1.53511e-48
1.19467e-47
1.68136e-48
-1.85178e-40
-1.73498e-41
-9.53744e-42
-2.73784e-42
-2.37422e-43
-2.35496e-43
3.74278e-44
-1.64272e-44
7.04228e-45
-1.00665e-45
8.87491e-46
-5.56388e-47
8.83422e-47
-1.8385e-48
8.15071e-48
7.22911e-49
7.30894e-49
1.66568e-49
6.59763e-50
3.48937e-50
6.59246e-51
4.92756e-51
6.11166e-52
6.76728e-52
-3.23045e-52
1.50522e-52
-2.76214e-51
6.71333e-52
-1.38304e-50
4.86384e-51
-6.48579e-50
3.43028e-50
-7.8453e-50
1.63906e-49
1.3507e-49
7.85322e-49
2.91397e-49
5.17648e-49
-6.76267e-50
-1.46613e-48
-3.979e-49
-1.33233e-48
-6.76267e-50
1.33233e-48
2.91397e-49
1.46613e-48
1.3507e-49
-5.17648e-49
-7.84537e-50
-7.85322e-49
-6.4864e-50
-1.63905e-49
-1.38847e-50
-3.42945e-50
-3.16881e-51
-4.7873e-51
-3.21036e-51
7.31635e-54
-1.42246e-50
4.85488e-51
-6.72325e-50
3.48819e-50
-8.94565e-50
1.68096e-49
8.44909e-50
8.14678e-49
2.80971e-49
6.46513e-49
1.62549e-49
-8.50247e-49
-1.62492e-49
-1.63924e-48
-2.80527e-49
-8.50309e-49
-8.11255e-50
6.4588e-49
1.04188e-49
8.08965e-49
1.14482e-49
7.09611e-41
5.32333e-42
8.08842e-42
-7.94954e-43
8.01489e-43
-6.50146e-44
7.79228e-44
-2.41422e-45
6.90713e-45
1.27379e-46
5.94754e-46
3.21743e-47
4.7877e-47
4.1095e-48
3.74058e-48
4.47412e-49
2.80634e-49
4.542e-50
2.07225e-50
5.04566e-51
1.54124e-51
5.35665e-52
1.13021e-52
6.04878e-53
-1.6324e-53
1.13829e-53
-1.78027e-52
4.66272e-53
-8.86412e-52
3.36234e-52
-4.12055e-51
2.35775e-51
-4.96047e-51
1.12103e-50
8.59824e-51
5.32769e-50
1.84968e-50
3.49868e-50
-4.29929e-51
-9.94221e-50
-2.52555e-50
-9.02794e-50
-4.29929e-51
9.02794e-50
1.84968e-50
9.94221e-50
8.59823e-51
-3.49868e-50
-4.96052e-51
-5.32769e-50
-4.12095e-51
-1.12102e-50
-8.89976e-52
-2.35717e-51
-2.0476e-52
-3.30901e-52
-2.07472e-52
5.10365e-55
-9.12053e-52
3.35605e-52
-4.27367e-51
2.39789e-51
-5.66435e-51
1.14998e-50
5.39328e-51
5.52927e-50
1.78617e-50
4.3788e-50
1.03281e-50
-5.77382e-50
-1.03242e-50
-1.11269e-49
-1.78318e-50
-5.77429e-50
-5.17028e-51
4.37417e-50
6.63718e-51
5.48863e-50
7.81315e-51
3.97998e-40
1.19409e-40
3.78054e-41
9.94395e-42
3.24837e-42
8.40461e-43
2.75045e-43
6.66821e-44
2.17196e-44
5.19299e-45
1.67548e-45
3.82966e-46
1.22549e-46
2.75335e-47
8.73021e-48
1.89638e-48
5.95849e-49
1.27446e-49
3.96091e-50
8.32378e-51
2.54361e-51
5.35069e-52
1.59312e-52
3.42415e-53
8.12189e-54
2.53536e-54
-1.07719e-53
3.15065e-54
-5.60826e-53
2.18733e-53
-2.59248e-52
1.52307e-52
-3.10989e-52
7.19233e-52
5.41378e-52
3.38902e-51
1.16225e-51
2.21715e-51
-2.70606e-52
-6.32201e-51
-1.58708e-51
-5.73623e-51
-2.70606e-52
5.73623e-51
1.16225e-51
6.32201e-51
5.41378e-52
-2.21715e-51
-3.10992e-52
-3.38902e-51
-2.59275e-52
-7.19229e-52
-5.63413e-53
-1.52269e-52
-1.3016e-53
-2.15171e-53
-1.31893e-53
3.36324e-56
-5.77493e-53
2.1826e-53
-2.68971e-52
1.54929e-52
-3.55504e-52
7.38045e-52
3.40104e-52
3.51908e-51
1.12353e-51
2.78072e-51
6.49459e-52
-3.67713e-51
-6.49196e-52
-7.08261e-51
-1.12156e-51
-3.67745e-51
-3.25626e-52
2.77756e-51
4.18875e-52
3.49205e-51
4.99661e-52
-7.75456e-41
2.15781e-40
-7.53803e-42
1.77924e-41
-6.62571e-43
1.4852e-42
-5.67116e-44
1.16375e-43
-4.52472e-45
8.9465e-45
-3.50214e-46
6.51614e-46
-2.56863e-47
4.62557e-47
-1.82681e-48
3.14185e-48
-1.24344e-49
2.07776e-49
-8.21333e-51
1.32429e-50
-5.22404e-52
8.22428e-52
-3.22822e-53
4.95087e-53
-2.0248e-54
2.93147e-54
-7.99778e-55
3.5853e-55
-3.39229e-54
1.40121e-54
-1.55423e-53
9.65378e-54
-1.85769e-53
4.54281e-53
3.24732e-53
2.1268e-52
6.95732e-53
1.38711e-52
-1.62301e-53
-3.96602e-52
-9.50201e-53
-3.59628e-52
-1.62301e-53
3.59628e-52
6.95732e-53
3.96602e-52
3.24731e-53
-1.38711e-52
-1.8577e-53
-2.1268e-52
-1.55435e-53
-4.54278e-53
-3.39972e-54
-9.65085e-54
-7.89181e-55
-1.36968e-54
-7.99758e-55
2.15525e-57
-3.4854e-54
1.38944e-54
-1.61306e-53
9.82054e-54
-2.12597e-53
4.66252e-53
2.04304e-53
2.20917e-52
6.73277e-53
1.74272e-52
3.89078e-53
-2.30937e-52
-3.88912e-53
-4.44664e-52
-6.72053e-53
-2.30958e-52
-1.95379e-53
1.74062e-52
2.51659e-53
2.1916e-52
3.15113e-53
-8.44939e-40
1.08119e-40
-8.02344e-41
5.40328e-42
-6.89713e-42
3.39436e-43
-5.82269e-43
2.36611e-44
-4.58618e-44
1.74123e-45
-3.52143e-45
1.24567e-46
-2.56412e-46
8.76565e-48
-1.81597e-47
5.91564e-49
-1.2318e-48
3.89277e-50
-8.12616e-50
2.46887e-51
-5.16802e-51
1.52626e-52
-3.19916e-52
9.13918e-54
-1.91845e-53
5.35335e-55
-1.1612e-54
4.20492e-56
-2.63791e-55
8.63134e-56
-9.17947e-55
5.84237e-55
-1.09001e-54
2.73771e-54
1.91121e-54
1.27326e-53
4.08804e-54
8.27848e-54
-9.55202e-55
-2.37356e-53
-5.58406e-54
-2.15091e-53
-9.55202e-55
2.15091e-53
4.08804e-54
2.37356e-53
1.91122e-54
-8.27848e-54
-1.08983e-54
-1.27326e-53
-9.14518e-55
-2.73769e-54
-2.01006e-55
-5.83997e-55
-4.67871e-56
-8.32704e-56
-4.74166e-56
1.32104e-58
-2.06098e-55
8.44795e-56
-9.49285e-55
5.94341e-55
-1.24833e-54
2.81045e-54
1.20372e-54
1.32307e-53
3.95944e-54
1.0419e-53
2.28762e-54
-1.38371e-53
-2.2866e-54
-2.66334e-53
-3.95201e-54
-1.38385e-53
-1.15002e-54
1.04058e-53
1.48408e-54
1.3122e-53
1.89549e-54
-1.39521e-39
-1.27361e-40
-1.32007e-40
-1.98236e-41
-1.13028e-41
-1.94566e-42
-9.51644e-43
-1.59659e-43
-7.4744e-44
-1.24384e-44
-5.7272e-45
-9.08798e-46
-4.16143e-46
-6.45124e-47
-2.94236e-47
-4.37791e-48
-1.99256e-48
-2.89118e-49
-1.31272e-49
-1.83938e-50
-8.33752e-51
-1.13957e-51
-5.15545e-52
-6.83457e-53
-3.08737e-53
-3.99556e-54
-1.80432e-54
-2.26229e-55
-1.13594e-55
-7.55604e-57
-5.74322e-56
3.38626e-56
-6.18306e-56
1.61487e-55
1.08235e-55
7.4729e-55
2.31162e-55
4.84606e-55
-5.41018e-56
-1.39264e-54
-3.15804e-55
-1.26133e-54
-5.41017e-56
1.26133e-54
2.31163e-55
1.39264e-54
1.08251e-55
-4.84607e-55
-6.15262e-56
-7.47292e-55
-5.17809e-56
-1.61522e-55
-1.14379e-56
-3.45327e-56
-2.67014e-57
-4.94024e-57
-2.70621e-57
7.84263e-60
-1.17292e-56
5.01225e-57
-5.37631e-56
3.51472e-56
-7.05391e-56
1.65838e-55
6.82516e-56
7.76723e-55
2.24083e-55
6.10812e-55
1.29439e-55
-8.12592e-55
-1.29379e-55
-1.56366e-54
-2.23651e-55
-8.12677e-55
-6.51498e-56
6.10006e-55
8.41817e-56
7.70176e-55
1.11728e-55
-4.18001e-41
-1.35647e-40
-3.94782e-42
-2.06867e-41
-3.37364e-43
-2.02335e-42
-2.83659e-44
-1.65889e-43
-2.22473e-45
-1.29207e-44
-1.70285e-46
-9.44e-46
-1.23595e-47
-6.70119e-47
-8.73119e-49
-4.54763e-48
-5.90759e-50
-3.00334e-49
-3.88918e-51
-1.91078e-50
-2.4684e-52
-1.18383e-51
-1.52539e-53
-7.10022e-53
-9.12958e-55
-4.15106e-54
-5.33876e-56
-2.3572e-55
-3.65274e-57
-1.27804e-56
-3.03585e-57
1.26211e-57
-3.40968e-57
9.14167e-57
5.99898e-57
4.22436e-56
1.27936e-56
2.73244e-56
-2.99841e-57
-7.87035e-56
-1.74802e-56
-7.12451e-56
-2.9984e-57
7.12452e-56
1.27936e-56
7.87044e-56
5.99945e-57
-2.73238e-56
-3.40071e-57
-4.22454e-56
-2.86913e-57
-9.17921e-57
-6.36253e-58
-1.96716e-57
-1.48788e-58
-2.81819e-58
-1.508e-58
-1.38976e-61
-6.52517e-58
2.8638e-58
-2.9795e-57
2.00228e-57
-3.90186e-57
9.42582e-57
3.78579e-57
4.39214e-56
1.24106e-56
3.44914e-56
7.16759e-57
-4.59651e-56
-7.16417e-57
-8.8426e-56
-1.23861e-56
-4.5969e-56
-3.61106e-57
3.44437e-56
4.67297e-57
4.35418e-56
6.34288e-57
1.38984e-39
9.35247e-41
1.31498e-40
3.96469e-42
1.12591e-41
2.11543e-43
9.47959e-43
1.33962e-44
7.44539e-44
9.43753e-46
5.70494e-45
6.60907e-47
4.14523e-46
4.5951e-48
2.93089e-47
3.07062e-49
1.98478e-48
2.00458e-50
1.30758e-49
1.26135e-51
8.30487e-51
7.74264e-53
5.13523e-52
4.60199e-54
3.07522e-53
2.6695e-55
1.7949e-54
1.50489e-56
1.01767e-55
8.44136e-58
5.48043e-57
1.52593e-58
1.21818e-58
5.06348e-58
3.38041e-58
2.33419e-57
6.86484e-58
1.51623e-57
-1.6091e-58
-4.34363e-57
-9.36926e-58
-3.93511e-57
-1.60876e-58
3.93678e-57
6.85645e-58
4.36269e-57
3.21935e-58
-1.50192e-57
-1.82048e-58
-2.33272e-57
-1.53921e-58
-5.1177e-58
-3.42672e-59
-1.10246e-58
-8.09251e-60
-4.95521e-60
-8.14166e-60
-1.16054e-59
-3.51107e-59
1.36275e-59
-1.59869e-58
1.11058e-58
-2.08975e-58
5.24858e-58
2.03322e-58
2.43567e-57
6.65549e-58
1.91113e-57
3.8438e-58
-2.54941e-57
-3.84108e-58
-4.89182e-57
-6.64306e-58
-2.5285e-57
-1.93879e-58
1.89743e-57
2.51149e-58
2.40556e-57
3.45318e-58
8.9912e-40
1.79165e-40
8.54114e-41
1.46493e-41
7.34451e-42
1.21747e-42
6.20207e-43
9.51501e-44
4.88616e-44
7.2998e-45
3.75254e-45
5.30703e-46
2.73291e-46
3.76041e-47
1.93583e-47
2.54948e-48
1.3133e-48
1.6827e-49
8.66501e-50
1.07001e-50
5.51143e-51
6.62658e-52
3.41215e-52
3.97289e-53
2.04581e-53
2.32197e-54
1.19532e-54
1.31837e-55
6.78607e-56
7.30082e-57
3.75097e-57
3.75114e-58
1.94058e-58
-6.72807e-59
2.88083e-59
8.71633e-59
3.65911e-59
2.5563e-58
-9.13963e-60
-8.95716e-59
-4.89033e-59
-1.80526e-58
-7.59807e-60
2.10298e-58
3.57447e-59
4.58171e-58
1.60245e-59
2.84558e-59
-1.01371e-59
-5.99108e-59
-7.60424e-60
-6.83216e-59
-1.7078e-60
-2.5606e-59
-1.71839e-60
2.05106e-58
-5.2804e-61
-2.22861e-58
-1.04521e-60
-4.37763e-59
-7.8419e-60
7.99385e-61
-1.03696e-59
5.5078e-59
1.02304e-59
2.61103e-58
3.38924e-59
2.16901e-58
2.09372e-59
-2.70038e-58
-1.92426e-59
-2.85135e-58
-3.59581e-59
1.42802e-58
-1.11827e-59
-6.50688e-60
1.3923e-59
8.6554e-59
-1.07998e-58
1.55106e-40
8.34673e-41
1.50416e-41
7.0903e-42
1.32031e-42
5.99175e-43
1.13092e-43
4.72436e-44
9.03488e-45
3.64223e-45
7.01097e-46
2.65871e-46
5.15737e-47
1.8895e-47
3.68183e-48
1.28474e-48
2.51657e-49
8.4992e-50
1.67048e-50
5.41683e-51
1.06865e-51
3.361e-52
6.64776e-53
2.01876e-53
4.00382e-54
1.18173e-54
2.34833e-55
6.71828e-56
1.33734e-56
3.62023e-57
7.36608e-58
-2.88728e-58
5.43572e-59
-2.25469e-57
2.79534e-59
-7.60863e-58
3.97649e-60
3.43811e-57
-1.54712e-59
2.79897e-57
9.92141e-61
5.67172e-58
1.62857e-59
-5.76038e-59
-1.48401e-60
4.16837e-57
-1.62616e-59
2.0761e-57
-1.29165e-59
1.25897e-57
8.70945e-60
-8.1787e-58
2.0529e-60
-4.33217e-58
-2.52744e-59
3.8408e-57
-1.90772e-60
-4.17141e-57
1.57945e-59
-8.29765e-58
1.06883e-59
-9.07085e-59
1.13214e-59
5.28812e-58
-8.72224e-60
2.57372e-57
-1.92921e-59
2.25257e-57
1.63023e-59
-2.64914e-57
1.68707e-59
-5.24296e-58
-2.40127e-59
5.21415e-57
-1.98352e-59
-2.17149e-57
1.51788e-59
-7.99236e-58
-2.30434e-57
2.68167e-41
1.48157e-41
2.65967e-42
1.29351e-42
2.37833e-43
1.11204e-43
2.065e-44
8.90855e-45
1.66855e-45
6.94606e-46
1.30598e-46
5.12633e-47
9.67667e-48
3.67385e-48
6.94677e-49
2.51835e-49
4.77031e-50
1.67682e-50
3.17784e-51
1.07535e-51
2.03889e-52
6.70627e-53
1.27112e-53
4.04756e-54
7.66873e-55
2.37845e-55
4.50012e-56
1.32763e-56
2.426e-57
-1.30752e-57
1.16325e-59
-9.29436e-57
3.00255e-58
-4.33057e-56
5.00863e-58
-1.47004e-56
3.99957e-59
6.55975e-56
-3.05588e-58
5.36298e-56
5.31427e-59
1.07612e-56
3.21451e-58
-2.44562e-57
-5.26662e-59
7.43901e-56
-3.27064e-58
3.86157e-56
-2.4849e-58
2.3896e-56
1.70743e-58
-1.58626e-56
4.63729e-59
-9.14142e-57
-4.78871e-58
6.95282e-56
-3.47077e-59
-7.58192e-56
3.05407e-58
-1.49792e-56
2.1956e-58
-1.52978e-57
2.37065e-58
1.00602e-56
-1.86941e-58
4.89925e-56
-4.26062e-58
4.2801e-56
2.90183e-58
-5.07993e-56
3.45949e-58
-1.0857e-56
-4.29817e-58
9.48584e-56
-3.58584e-58
-4.25456e-56
2.82024e-58
-1.48906e-56
-4.04854e-56
3.15359e-42
3.56484e-42
3.17448e-43
3.31515e-43
2.87109e-44
2.94862e-44
2.51491e-45
2.46788e-45
2.04547e-46
1.97689e-46
1.60956e-47
1.50819e-47
1.19718e-48
1.10577e-48
8.62162e-50
7.78262e-50
5.933e-51
5.28448e-51
3.9592e-52
3.46268e-52
2.54275e-53
2.19547e-53
1.58641e-54
1.34773e-54
9.56075e-56
7.94101e-56
5.00881e-57
-9.64833e-58
-2.46225e-57
-3.80473e-56
-2.55681e-57
-1.73418e-55
5.73283e-57
-8.0824e-55
9.80812e-57
-2.74964e-55
7.6389e-58
1.22403e-54
-6.06529e-57
9.99317e-55
7.2402e-58
1.95522e-55
6.0417e-57
-6.63194e-56
-7.72579e-58
1.2976e-54
-6.10351e-57
7.00152e-55
-4.85617e-57
4.40829e-55
3.11733e-57
-3.00889e-55
9.73891e-58
-1.86372e-55
-8.86531e-57
1.22814e-54
-6.21317e-58
-1.345e-54
5.73625e-57
-2.6367e-55
4.24091e-57
-2.47658e-56
4.62615e-57
1.87315e-55
-3.68867e-57
9.13233e-55
-8.42331e-57
7.95806e-55
5.38298e-57
-9.54144e-55
6.53933e-57
-2.22554e-55
-8.11828e-57
1.68208e-54
-6.48211e-57
-8.11436e-55
5.36059e-57
-2.68625e-55
-6.91303e-55
-7.06251e-43
9.36308e-42
-7.92447e-44
9.36024e-43
-8.60697e-45
8.54468e-44
-8.21271e-46
7.49865e-45
-7.54933e-47
6.14672e-46
-6.37594e-48
4.85308e-47
-5.18761e-49
3.632e-48
-3.96683e-50
2.62506e-49
-2.9274e-51
1.81488e-50
-2.05695e-52
1.21424e-51
-1.39785e-53
7.80644e-53
-9.11901e-55
4.85477e-54
-6.00298e-56
2.75914e-55
-1.51727e-56
-8.37873e-56
-5.32828e-56
-6.89119e-55
-4.92204e-56
-3.12744e-54
1.093e-55
-1.46421e-53
1.87101e-55
-4.99235e-54
1.42318e-56
2.21707e-53
-1.1715e-55
1.80751e-53
7.69956e-57
3.4452e-54
1.10296e-55
-1.57458e-54
-9.7334e-57
2.18524e-53
-1.10553e-55
1.23138e-53
-9.23756e-56
7.89294e-54
5.50714e-56
-5.53888e-54
1.98092e-56
-3.66019e-54
-1.59157e-55
2.09776e-53
-1.07372e-56
-2.30846e-53
1.04645e-55
-4.49072e-54
7.97142e-56
-3.80181e-55
8.78806e-56
3.38568e-54
-7.08017e-56
1.65263e-53
-1.6205e-55
1.43731e-53
9.68621e-56
-1.73938e-53
1.20105e-55
-4.39082e-54
-1.49052e-55
2.88623e-53
-1.13229e-55
-1.50131e-53
9.90674e-56
-4.69984e-54
-1.13478e-53
-1.10936e-41
7.47484e-41
-1.18673e-42
7.33802e-42
-1.20743e-43
6.59295e-43
-1.11533e-44
5.72318e-44
-9.86246e-46
4.6441e-45
-8.13589e-47