/*--------------------------------*- C++ -*----------------------------------*\
| =========                 |                                                 |
| \\      /  F ield         | OpenFOAM: The Open Source CFD Toolbox           |
|  \\    /   O peration     | Version:  2.4.0                                 |
|   \\  /    A nd           | Web:      www.OpenFOAM.org                      |
|    \\/     M anipulation  |                                                 |
\*---------------------------------------------------------------------------*/
FoamFile
{
    version     2.0;
    format      ascii;
    class       volVectorField;
    location    "0.65";
    object      U;
}
// * * * * * * * * * * * * * * * * * * * * * * * * * * * * * * * * * * * * * //

dimensions      [0 1 -1 0 0 0 0];

internalField   nonuniform List<vector> 
1915
(
(2.55451e-41 -6.63362e-39 0)
(5.69592e-40 -9.79253e-40 0)
(2.42473e-40 -5.87793e-38 0)
(5.88311e-39 -8.67285e-39 0)
(1.86927e-39 -4.80529e-37 0)
(5.00884e-38 -7.07107e-38 0)
(1.31782e-38 -3.76909e-36 0)
(4.03514e-37 -5.521e-37 0)
(8.43153e-38 -2.75844e-35 0)
(3.11453e-36 -4.03434e-36 0)
(4.49728e-37 -1.94938e-34 0)
(2.2306e-35 -2.83226e-35 0)
(1.89122e-36 -1.23933e-33 0)
(1.53273e-34 -1.80409e-34 0)
(2.57959e-36 -7.85253e-33 0)
(9.27767e-34 -1.12539e-33 0)
(-2.62967e-35 -4.03931e-32 0)
(5.4639e-33 -5.86631e-33 0)
(-2.765e-34 -2.3952e-31 0)
(2.31959e-32 -3.27088e-32 0)
(-6.3622e-36 -1.97603e-36 0)
(-6.2892e-35 -1.43292e-35 0)
(-3.29793e-34 -1.16659e-34 0)
(-3.68195e-33 -9.16559e-35 0)
(-3.4094e-33 2.25024e-34 0)
(3.4094e-33 2.25024e-34 0)
(3.68195e-33 -9.16559e-35 0)
(3.29796e-34 -1.16658e-34 0)
(6.29532e-35 -1.43333e-35 0)
(6.47785e-36 -2.12975e-36 0)
(8.43253e-37 -2.19902e-37 0)
(8.24218e-38 -2.44573e-38 0)
(-5.20357e-43 -4.5105e-39 0)
(-8.24281e-38 -2.44588e-38 0)
(-8.43328e-37 -2.1992e-37 0)
(-6.47866e-36 -2.12996e-36 0)
(-6.29621e-35 -1.43355e-35 0)
(-3.2988e-34 -1.16683e-34 0)
(-3.6828e-33 -9.1878e-35 0)
(-3.41596e-33 2.22869e-34 0)
(3.34559e-33 2.10468e-34 0)
(3.34559e-33 -2.10468e-34 0)
(-3.41596e-33 -2.22869e-34 0)
(-3.6828e-33 9.1878e-35 0)
(-3.2988e-34 1.16683e-34 0)
(-6.29622e-35 1.43355e-35 0)
(-6.47948e-36 2.12975e-36 0)
(-8.52318e-37 2.1763e-37 0)
(-1.67199e-37 -1.94333e-40 0)
(-8.60284e-37 -2.19688e-37 0)
(-6.55378e-36 -2.15172e-36 0)
(-6.37215e-35 -1.45309e-35 0)
(-3.35506e-34 -1.1859e-34 0)
(-3.73919e-33 -1.04057e-34 0)
(-3.68195e-33 1.20767e-34 0)
(-6.77631e-40 2.37624e-34 0)
(3.68194e-33 1.20765e-34 0)
(3.73913e-33 -1.04075e-34 0)
(3.34657e-34 -1.18627e-34 0)
(5.94889e-35 -1.31691e-35 0)
(-1.96552e-36 8.99444e-37 0)
(-1.73386e-35 7.54299e-36 0)
(-9.03853e-35 6.138e-35 0)
(-6.61149e-34 4.81312e-35 0)
(-5.86316e-34 -1.18251e-34 0)
(5.86316e-34 -1.18251e-34 0)
(6.6115e-34 4.81311e-35 0)
(9.03867e-35 6.13798e-35 0)
(1.73624e-35 7.54982e-36 0)
(2.0569e-36 1.071e-36 0)
(2.73188e-37 1.07122e-37 0)
(2.84527e-38 1.14383e-38 0)
(-1.99546e-43 2.04676e-39 0)
(-2.84551e-38 1.1439e-38 0)
(-2.73216e-37 1.0713e-37 0)
(-2.05719e-36 1.07109e-36 0)
(-1.73656e-35 7.55085e-36 0)
(-9.04157e-35 6.13913e-35 0)
(-6.61426e-34 4.82393e-35 0)
(-5.88402e-34 -1.17169e-34 0)
(5.68677e-34 -1.10593e-34 0)
(5.68677e-34 1.10593e-34 0)
(-5.88402e-34 1.17169e-34 0)
(-6.61426e-34 -4.82393e-35 0)
(-9.04157e-35 -6.13913e-35 0)
(-1.73656e-35 -7.55084e-36 0)
(-2.05749e-36 -1.071e-36 0)
(-2.76382e-37 -1.06092e-37 0)
(-5.7764e-38 8.5837e-41 0)
(-2.79174e-37 1.07028e-37 0)
(-2.0831e-36 1.08131e-36 0)
(-1.76098e-35 7.64652e-36 0)
(-9.21963e-35 6.23541e-35 0)
(-6.76702e-34 5.47067e-35 0)
(-6.6115e-34 -6.34471e-35 0)
(-2.74242e-40 -1.24924e-34 0)
(6.61146e-34 -6.34464e-35 0)
(6.76675e-34 5.4712e-35 0)
(9.18968e-35 6.23053e-35 0)
(1.59738e-35 5.83132e-36 0)
(-5.14012e-37 2.88544e-37 0)
(-3.80671e-36 2.32979e-36 0)
(-1.46215e-35 1.53532e-35 0)
(-8.31119e-35 1.1281e-35 0)
(-7.18546e-35 -2.93545e-35 0)
(7.18546e-35 -2.93545e-35 0)
(8.3112e-35 1.1281e-35 0)
(1.46216e-35 1.53531e-35 0)
(3.80993e-36 2.33178e-36 0)
(5.14523e-37 3.46597e-37 0)
(7.6507e-38 3.75369e-38 0)
(8.50871e-39 4.12367e-39 0)
(-7.0401e-44 7.69804e-40 0)
(-8.50954e-39 4.12393e-39 0)
(-7.65164e-38 3.754e-38 0)
(-5.1462e-37 3.46633e-37 0)
(-3.81092e-36 2.33217e-36 0)
(-1.46303e-35 1.53572e-35 0)
(-8.31895e-35 1.13189e-35 0)
(-7.23778e-35 -2.90038e-35 0)
(6.79672e-35 -2.69848e-35 0)
(6.79672e-35 2.69848e-35 0)
(-7.23778e-35 2.90038e-35 0)
(-8.31895e-35 -1.13189e-35 0)
(-1.46303e-35 -1.53572e-35 0)
(-3.81093e-36 -2.33216e-36 0)
(-5.14718e-37 -3.46597e-37 0)
(-7.75181e-38 -3.71492e-38 0)
(-1.72989e-38 3.28754e-41 0)
(-7.83961e-38 3.75007e-38 0)
(-5.2233e-37 3.50297e-37 0)
(-3.87874e-36 2.36557e-36 0)
(-1.50673e-35 1.56659e-35 0)
(-8.64762e-35 1.33e-35 0)
(-8.3112e-35 -1.60204e-35 0)
(-4.96307e-41 -3.14076e-35 0)
(8.31114e-35 -1.60201e-35 0)
(8.64727e-35 1.33022e-35 0)
(1.50294e-35 1.56528e-35 0)
(3.6681e-36 1.80151e-36 0)
(-9.39624e-38 8.31538e-38 0)
(-6.01769e-37 6.20882e-37 0)
(-1.73178e-36 3.8139e-36 0)
(-7.96629e-36 2.74031e-36 0)
(-6.75825e-36 -7.28942e-36 0)
(6.75825e-36 -7.28942e-36 0)
(7.96629e-36 2.7403e-36 0)
(1.73174e-36 3.8139e-36 0)
(6.01944e-37 6.21723e-37 0)
(9.14004e-38 1.00483e-37 0)
(1.47254e-38 1.15406e-38 0)
(1.72955e-39 1.33827e-39 0)
(-1.62089e-44 2.59688e-40 0)
(-1.72974e-39 1.33837e-39 0)
(-1.47275e-38 1.15418e-38 0)
(-9.14215e-38 1.00496e-37 0)
(-6.02153e-37 6.21854e-37 0)
(-1.73352e-36 3.81524e-36 0)
(-7.98123e-36 2.75198e-36 0)
(-6.85143e-36 -7.1876e-36 0)
(6.14137e-36 -6.65603e-36 0)
(6.14137e-36 6.65603e-36 0)
(-6.85143e-36 7.1876e-36 0)
(-7.98123e-36 -2.75198e-36 0)
(-1.73352e-36 -3.81524e-36 0)
(-6.02156e-37 -6.21852e-37 0)
(-9.14429e-38 -1.00483e-37 0)
(-1.49392e-38 -1.14098e-38 0)
(-3.52038e-39 1.14328e-41 0)
(-1.51238e-38 1.1528e-38 0)
(-9.29835e-38 1.01678e-37 0)
(-6.15111e-37 6.32054e-37 0)
(-1.80998e-36 3.90405e-36 0)
(-8.49e-36 3.27188e-36 0)
(-7.96629e-36 -4.00709e-36 0)
(-5.82284e-42 -7.83143e-36 0)
(7.96624e-36 -4.00704e-36 0)
(8.48984e-36 3.27214e-36 0)
(1.80824e-36 3.89817e-36 0)
(6.01375e-37 4.74628e-37 0)
(-1.60638e-38 1.6182e-38 0)
(-8.99149e-38 1.15488e-37 0)
(-1.73566e-37 6.63072e-37 0)
(-5.59328e-37 4.64768e-37 0)
(-4.62923e-37 -1.26596e-36 0)
(4.62923e-37 -1.26596e-36 0)
(5.59327e-37 4.64769e-37 0)
(1.7355e-37 6.63077e-37 0)
(8.98529e-38 1.15691e-37 0)
(1.50341e-38 1.97318e-38 0)
(2.61522e-39 2.37799e-39 0)
(3.20752e-40 2.857e-40 0)
(-3.34823e-45 5.71466e-41 0)
(-3.20791e-40 2.85722e-40 0)
(-2.61564e-39 2.37824e-39 0)
(-1.50383e-38 1.97347e-38 0)
(-8.98933e-38 1.1572e-37 0)
(-1.73879e-37 6.63362e-37 0)
(-5.61983e-37 4.67175e-37 0)
(-4.78286e-37 -1.24594e-36 0)
(3.70414e-37 -1.14786e-36 0)
(3.70414e-37 1.14786e-36 0)
(-4.78286e-37 1.24594e-36 0)
(-5.61983e-37 -4.67175e-37 0)
(-1.73879e-37 -6.63362e-37 0)
(-8.98937e-38 -1.1572e-37 0)
(-1.50425e-38 -1.97318e-38 0)
(-2.65634e-39 -2.34919e-39 0)
(-6.53567e-40 2.56717e-42 0)
(-2.69168e-39 2.37514e-39 0)
(-1.5327e-38 1.99859e-38 0)
(-9.21803e-38 1.17812e-37 0)
(-1.86257e-37 6.80688e-37 0)
(-6.36473e-37 5.62849e-37 0)
(-5.59327e-37 -7.00964e-37 0)
(-7.19644e-44 -1.36619e-36 0)
(5.5933e-37 -7.00959e-37 0)
(6.3655e-37 5.62848e-37 0)
(1.86936e-37 6.79221e-37 0)
(9.43581e-38 8.71377e-38 0)
(-2.41826e-39 2.9091e-39 0)
(-1.21988e-38 1.98465e-38 0)
(-1.57231e-38 1.09708e-37 0)
(-2.31642e-38 7.58554e-38 0)
(-1.77814e-38 -2.0954e-37 0)
(1.77814e-38 -2.0954e-37 0)
(2.3164e-38 7.58557e-38 0)
(1.57198e-38 1.09711e-37 0)
(1.21783e-38 1.98985e-38 0)
(2.19948e-39 3.56788e-39 0)
(4.0447e-40 4.46036e-40 0)
(5.13702e-41 5.53485e-41 0)
(-5.85647e-46 1.13414e-41 0)
(-5.13769e-41 5.5353e-41 0)
(-4.04542e-40 4.46088e-40 0)
(-2.20018e-39 3.56846e-39 0)
(-1.21849e-38 1.99042e-38 0)
(-1.57726e-38 1.09767e-37 0)
(-2.35752e-38 7.63074e-38 0)
(-2.00336e-38 -2.05917e-37 0)
(5.19192e-39 -1.8919e-37 0)
(5.19192e-39 1.8919e-37 0)
(-2.00336e-38 2.05917e-37 0)
(-2.35752e-38 -7.63074e-38 0)
(-1.57726e-38 -1.09767e-37 0)
(-1.2185e-38 -1.99042e-38 0)
(-2.20089e-39 -3.56788e-39 0)
(-4.11242e-40 -4.40318e-40 0)
(-1.04766e-40 5.18774e-43 0)
(-4.17039e-40 4.4546e-40 0)
(-2.24631e-39 3.61694e-39 0)
(-1.25368e-38 2.02948e-38 0)
(-1.75609e-38 1.12883e-37 0)
(-3.35012e-38 9.25827e-38 0)
(-2.3164e-38 -1.16556e-37 0)
(1.19723e-43 -2.26669e-37 0)
(2.31658e-38 -1.16556e-37 0)
(3.35253e-38 9.25705e-38 0)
(1.77694e-38 1.12552e-37 0)
(1.33221e-38 1.47701e-38 0)
(-2.96091e-40 4.53644e-40 0)
(-1.61878e-39 2.92531e-39 0)
(-1.42119e-39 1.59323e-38 0)
(1.11566e-39 1.08709e-38 0)
(1.18023e-39 -3.04513e-38 0)
(-1.18012e-39 -3.04512e-38 0)
(-1.11494e-39 1.08721e-38 0)
(1.42586e-39 1.5942e-38 0)
(1.61597e-39 2.99694e-39 0)
(3.07371e-40 5.58044e-40 0)
(5.89541e-41 7.19503e-41 0)
(7.68477e-42 9.1548e-42 0)
(-9.40757e-47 1.91455e-42 0)
(-7.68583e-42 9.15559e-42 0)
(-5.89654e-41 7.19594e-41 0)
(-3.0748e-40 5.58143e-40 0)
(-1.61698e-39 2.9979e-39 0)
(-1.43376e-39 1.59512e-38 0)
(1.05496e-39 1.0945e-38 0)
(8.64853e-40 -2.9884e-38 0)
(-2.85607e-39 -2.73813e-38 0)
(-2.85607e-39 2.73813e-38 0)
(8.64853e-40 2.9884e-38 0)
(1.05496e-39 -1.0945e-38 0)
(-1.43376e-39 -1.59512e-38 0)
(-1.61699e-39 -2.99789e-39 0)
(-3.0759e-40 -5.58043e-40 0)
(-5.99904e-41 -7.09849e-41 0)
(-1.56844e-41 8.8848e-44 0)
(-6.08746e-41 7.18516e-41 0)
(-3.14367e-40 5.66134e-40 0)
(-1.66806e-39 3.06068e-39 0)
(-1.68115e-39 1.64363e-38 0)
(-2.45728e-40 1.33748e-38 0)
(1.11495e-39 -1.70118e-38 0)
(3.66416e-44 -3.30185e-38 0)
(-1.11449e-39 -1.7012e-38 0)
(2.50745e-40 1.33713e-38 0)
(1.7231e-39 1.63762e-38 0)
(1.83069e-39 2.19719e-39 0)
(9.60553e-40 6.08292e-40 0)
(-8.27935e-41 -1.44092e-40 0)
(-8.01198e-41 2.13509e-39 0)
(4.11864e-40 1.4859e-39 0)
(3.70678e-40 -4.23111e-39 0)
(-3.69698e-40 -4.2303e-39 0)
(-4.04746e-40 1.49539e-39 0)
(1.35138e-40 2.21377e-39 0)
(2.03237e-40 4.26729e-40 0)
(4.01156e-41 8.19569e-41 0)
(7.92788e-42 1.08201e-41 0)
(1.05525e-42 1.40534e-42 0)
(-1.37022e-47 2.98673e-43 0)
(-1.05541e-42 1.40547e-42 0)
(-7.9295e-42 1.08216e-41 0)
(-4.01311e-41 8.19725e-41 0)
(-2.03379e-40 4.26879e-40 0)
(-1.36224e-40 2.21517e-39 0)
(3.96683e-40 1.50636e-39 0)
(3.28584e-40 -4.14686e-39 0)
(-5.81094e-40 -3.79252e-39 0)
(-5.81094e-40 3.79252e-39 0)
(3.28584e-40 4.14686e-39 0)
(3.96683e-40 -1.50636e-39 0)
(-1.36224e-40 -2.21517e-39 0)
(-2.0338e-40 -4.26878e-40 0)
(-4.01467e-41 -8.19568e-41 0)
(-8.07274e-42 -1.06695e-41 0)
(-2.15509e-42 1.40268e-44 0)
(-8.196e-42 1.08045e-41 0)
(-4.10753e-41 8.3196e-41 0)
(-2.10224e-40 4.36291e-40 0)
(-1.68268e-40 2.28616e-39 0)
(2.34648e-40 1.84973e-39 0)
(4.04755e-40 -2.37079e-39 0)
(7.19096e-45 -4.59426e-39 0)
(-4.04672e-40 -2.37085e-39 0)
(-2.33819e-40 1.849e-39 0)
(1.7498e-40 2.2762e-39 0)
(2.36316e-40 3.09396e-40 0)
(2.12966e-38 -3.88969e-39 0)
(1.89135e-39 -4.24314e-39 0)
(5.49883e-40 -2.66954e-40 0)
(1.28156e-40 1.33834e-40 0)
(6.47922e-41 -5.50654e-40 0)
(-5.70203e-41 -5.4611e-40 0)
(-6.44741e-41 1.91081e-40 0)
(1.37942e-41 2.85517e-40 0)
(2.47729e-41 5.62945e-41 0)
(5.01256e-42 1.1074e-41 0)
(1.01282e-42 1.49134e-42 0)
(1.36998e-43 1.96906e-43 0)
(-1.85905e-48 4.24239e-44 0)
(-1.37019e-43 1.96924e-43 0)
(-1.01303e-42 1.49155e-42 0)
(-5.01459e-42 1.10762e-41 0)
(-2.47912e-41 5.63161e-41 0)
(-1.39308e-41 2.85716e-40 0)
(6.34989e-41 1.92624e-40 0)
(5.2516e-41 -5.34438e-40 0)
(-8.34739e-41 -4.87902e-40 0)
(-8.34739e-41 4.87902e-40 0)
(5.2516e-41 5.34438e-40 0)
(6.34989e-41 -1.92624e-40 0)
(-1.39308e-41 -2.85716e-40 0)
(-2.47914e-41 -5.63159e-41 0)
(-5.01667e-42 -1.1074e-41 0)
(-1.0319e-42 -1.46994e-42 0)
(-2.7993e-43 2.01201e-45 0)
(-1.04809e-42 1.4891e-42 0)
(-5.13702e-42 1.12473e-41 0)
(-2.56633e-41 5.76101e-41 0)
(-1.79116e-41 2.95278e-40 0)
(4.388e-41 2.37648e-40 0)
(6.45307e-41 -3.06726e-40 0)
(1.18449e-45 -5.93581e-40 0)
(-6.45177e-41 -3.06736e-40 0)
(-4.3758e-41 2.37523e-40 0)
(1.88727e-41 2.93805e-40 0)
(2.93992e-41 4.04474e-41 0)
(3.70827e-37 9.37323e-38 0)
(4.03232e-38 -3.07112e-38 0)
(5.08544e-39 -3.83053e-39 0)
(4.86997e-40 -3.16957e-40 0)
(5.18312e-41 -9.46536e-41 0)
(-3.58377e-42 -6.93247e-41 0)
(-7.93851e-42 2.32432e-41 0)
(1.47548e-42 3.51881e-41 0)
(2.87478e-42 7.06115e-42 0)
(5.92807e-43 1.41459e-42 0)
(1.21785e-43 1.93427e-43 0)
(1.66969e-44 2.58603e-44 0)
(-2.06139e-49 5.63057e-45 0)
(-1.6699e-44 2.5863e-44 0)
(-1.21805e-43 1.93458e-43 0)
(-5.9295e-43 1.41493e-42 0)
(-2.87545e-42 7.06467e-42 0)
(-1.47011e-42 3.52241e-41 0)
(8.1131e-42 2.35863e-41 0)
(6.69286e-42 -6.58464e-41 0)
(-1.03e-41 -6.00288e-41 0)
(-1.03e-41 6.00288e-41 0)
(6.69286e-42 6.58464e-41 0)
(8.1131e-42 -2.35863e-41 0)
(-1.47011e-42 -3.52241e-41 0)
(-2.87547e-42 -7.06464e-42 0)
(-5.93208e-43 -1.41463e-42 0)
(-1.2413e-43 -1.90589e-43 0)
(-3.41312e-44 2.69032e-46 0)
(-1.26123e-43 1.9313e-43 0)
(-6.07855e-43 1.43735e-42 0)
(-2.98007e-42 7.23218e-42 0)
(-1.9387e-42 3.64424e-41 0)
(5.84986e-42 2.92077e-41 0)
(8.23722e-42 -3.79062e-41 0)
(1.70622e-46 -7.32775e-41 0)
(-8.23542e-42 -3.79079e-41 0)
(-5.83366e-42 2.91888e-41 0)
(2.06304e-42 3.62403e-41 0)
(3.46158e-42 5.03804e-42 0)
(7.59334e-34 -8.85615e-31 0)
(1.50887e-31 -1.29981e-31 0)
(1.5233e-32 -1.04421e-29 0)
(-2.3672e-32 -1.05193e-30 0)
(1.76161e-31 1.32691e-30 0)
(-1.54382e-31 1.40211e-31 0)
(1.52344e-32 1.19e-29 0)
(1.36058e-32 1.21189e-30 0)
(8.64778e-34 1.06225e-30 0)
(1.6844e-31 1.58265e-31 0)
(4.11481e-35 6.27588e-31 0)
(-2.07645e-32 9.85495e-32 0)
(5.0278e-35 2.28223e-30 0)
(-3.29696e-31 3.43652e-31 0)
(8.60588e-35 2.16388e-29 0)
(-5.76272e-31 2.37274e-30 0)
(2.63369e-36 4.0609e-29 0)
(-1.77028e-32 4.28991e-30 0)
(-8.58094e-35 2.28362e-29 0)
(5.74449e-31 2.49353e-30 0)
(3.50226e-31 3.54703e-31 0)
(4.38347e-32 6.7907e-32 0)
(6.00875e-33 8.02013e-33 0)
(5.95274e-34 1.06683e-33 0)
(6.12611e-35 2.93535e-34 0)
(2.10698e-36 1.79404e-33 0)
(-3.4425e-35 1.84693e-32 0)
(-3.855e-34 1.41855e-31 0)
(-3.02502e-33 1.37313e-30 0)
(-2.57306e-32 6.99802e-30 0)
(-2.30593e-32 7.36171e-29 0)
(2.30594e-32 7.36171e-29 0)
(2.57279e-32 6.998e-30 0)
(2.89453e-33 1.37299e-30 0)
(-2.69157e-33 1.40901e-31 0)
(-5.28011e-32 1.05049e-32 0)
(-6.1135e-31 1.7827e-33 0)
(-5.28358e-32 8.14928e-33 0)
(-3.07707e-33 9.70211e-34 0)
(-1.30343e-34 1.43353e-34 0)
(-1.52121e-36 1.49602e-35 0)
(1.04766e-35 6.69307e-36 0)
(5.59083e-35 3.12684e-35 0)
(2.10069e-32 -1.23114e-32 0)
(3.67923e-33 -1.16366e-33 0)
(4.41451e-34 -1.13749e-34 0)
(5.543e-35 -1.06071e-35 0)
(-4.06948e-33 -8.09892e-32 0)
(-6.08838e-34 -4.90188e-33 0)
(-6.91861e-35 -2.18864e-34 0)
(-6.63179e-36 -5.72562e-36 0)
(-2.95222e-32 1.10655e-32 0)
(-4.24789e-33 6.75424e-34 0)
(-4.82169e-34 2.81784e-35 0)
(-4.52202e-35 3.57778e-37 0)
(1.8659e-33 9.42339e-32 0)
(4.40817e-34 5.73975e-33 0)
(6.44697e-35 2.5718e-34 0)
(1.05042e-35 6.59616e-36 0)
(2.60722e-32 1.55013e-32 0)
(4.57311e-33 1.17685e-33 0)
(5.65823e-34 7.96954e-35 0)
(7.1323e-35 5.3173e-36 0)
(-3.88392e-33 1.50614e-32 0)
(-7.42488e-34 1.73891e-33 0)
(-1.00099e-34 2.0465e-34 0)
(-1.32251e-35 2.14782e-35 0)
(-5.32449e-32 3.86583e-32 0)
(-9.45029e-33 3.46598e-33 0)
(-1.18861e-33 3.10025e-34 0)
(-1.50476e-34 2.71886e-35 0)
(-9.07146e-32 1.94401e-31 0)
(-1.59636e-32 1.25101e-32 0)
(-1.98614e-33 6.14271e-34 0)
(-2.50094e-34 2.08989e-35 0)
(-2.75685e-33 3.38373e-31 0)
(-4.8331e-34 2.07253e-32 0)
(-5.98395e-35 8.80319e-34 0)
(-7.51595e-36 1.40417e-35 0)
(9.03859e-32 2.03413e-31 0)
(1.59048e-32 1.30166e-32 0)
(1.97858e-33 6.29312e-34 0)
(2.4914e-34 2.02586e-35 0)
(5.65412e-32 3.93466e-32 0)
(1.0042e-32 3.47081e-33 0)
(1.2635e-33 3.03363e-34 0)
(1.60046e-34 2.60764e-35 0)
(8.11974e-33 1.04402e-32 0)
(1.52512e-33 1.21257e-33 0)
(2.03385e-34 1.43132e-34 0)
(2.66369e-35 1.5053e-35 0)
(1.15619e-33 1.39929e-33 0)
(2.33138e-34 1.80668e-34 0)
(3.25303e-35 2.30386e-35 0)
(4.44338e-36 2.5633e-36 0)
(1.19397e-34 2.07001e-34 0)
(2.52301e-35 2.88798e-35 0)
(3.6368e-36 3.92612e-36 0)
(5.10747e-37 4.58079e-37 0)
(-5.04706e-36 6.13467e-35 0)
(-1.23898e-36 1.1643e-35 0)
(-4.9233e-37 1.71063e-36 0)
(-7.97243e-38 2.34426e-37 0)
(-2.01622e-34 3.70424e-34 0)
(-4.44867e-35 7.58809e-35 0)
(-9.73418e-36 1.09805e-35 0)
(-1.45974e-36 1.52824e-36 0)
(-1.93236e-33 3.60779e-33 0)
(-4.16401e-34 6.98743e-34 0)
(-8.70741e-35 9.62899e-35 0)
(-1.26812e-35 1.29326e-35 0)
(-1.9614e-32 2.67938e-32 0)
(-3.98372e-33 4.65031e-33 0)
(-7.94339e-34 5.95371e-34 0)
(-1.10942e-34 7.48236e-35 0)
(-1.37831e-31 2.30629e-31 0)
(-2.68854e-32 3.53493e-32 0)
(-4.97914e-33 4.0552e-33 0)
(-6.63346e-34 4.70931e-34 0)
(-1.12087e-30 1.11925e-30 0)
(-1.88042e-31 1.18407e-31 0)
(-3.30056e-32 9.55705e-33 0)
(-4.14465e-33 7.1815e-34 0)
(-1.00091e-30 8.35415e-30 0)
(-1.64765e-31 6.80279e-31 0)
(-2.87426e-32 4.1856e-32 0)
(-3.5809e-33 1.80736e-33 0)
(1.00091e-30 8.35415e-30 0)
(1.64764e-31 6.80281e-31 0)
(2.87424e-32 4.18563e-32 0)
(3.58086e-33 1.80744e-33 0)
(1.12087e-30 1.11926e-30 0)
(1.88039e-31 1.18425e-31 0)
(3.30033e-32 9.5608e-33 0)
(4.14416e-33 7.18892e-34 0)
(1.37702e-31 2.30778e-31 0)
(2.68406e-32 3.55262e-32 0)
(4.9558e-33 4.09101e-33 0)
(6.58757e-34 4.77712e-34 0)
(1.65801e-32 2.78011e-32 0)
(3.23983e-33 5.83392e-33 0)
(5.28779e-34 8.23883e-34 0)
(6.48178e-35 1.14979e-34 0)
(-5.02507e-32 1.20199e-32 0)
(-9.00269e-33 1.03579e-32 0)
(-2.08744e-33 1.70369e-33 0)
(-3.11007e-34 2.82077e-34 0)
(-6.05525e-31 3.67992e-34 0)
(-7.77238e-32 7.55266e-35 0)
(-1.69446e-32 1.09841e-35 0)
(-2.25687e-33 1.7785e-36 0)
(-5.21653e-32 -8.37306e-33 0)
(-9.41498e-33 -9.6507e-33 0)
(-2.17331e-33 -1.60555e-33 0)
(-3.22279e-34 -2.66165e-34 0)
(-3.03221e-33 -1.00364e-33 0)
(-7.42839e-34 -1.18189e-33 0)
(-2.62269e-34 -2.22102e-34 0)
(-3.17074e-35 -9.74265e-36 0)
(-1.27277e-34 -1.48258e-34 0)
(-3.74023e-35 -1.69018e-34 0)
(1.23434e-35 1.88275e-35 0)
(1.6565e-34 2.68488e-34 0)
(6.55428e-36 -5.41776e-36 0)
(6.20417e-35 5.10597e-35 0)
(3.32987e-34 4.93624e-34 0)
(1.74167e-33 2.61951e-33 0)
(8.13239e-35 4.73631e-35 0)
(5.99632e-34 3.81522e-34 0)
(3.34754e-33 2.93039e-33 0)
(1.96687e-32 1.66232e-32 0)
(4.63504e-34 3.01378e-34 0)
(3.66754e-33 2.42809e-33 0)
(2.32293e-32 1.96492e-32 0)
(1.59082e-31 1.16689e-31 0)
(5.65394e-36 -8.23061e-37 0)
(5.47542e-37 -2.92588e-38 0)
(4.7711e-38 -1.23752e-39 0)
(4.09288e-39 -6.54259e-41 0)
(3.27112e-40 -1.0707e-41 0)
(2.4828e-41 -6.04325e-42 0)
(1.17811e-42 1.91617e-42 0)
(2.46874e-43 2.94868e-42 0)
(2.42945e-43 6.01939e-43 0)
(4.94641e-44 1.23605e-43 0)
(1.01915e-44 1.72092e-44 0)
(1.40758e-45 2.34309e-45 0)
(1.31523e-49 5.17452e-46 0)
(-1.40529e-45 2.34339e-45 0)
(-1.0154e-44 1.72128e-44 0)
(-4.88663e-44 1.23646e-43 0)
(-2.33876e-43 6.02386e-43 0)
(-1.13494e-43 2.95351e-42 0)
(6.88432e-43 1.96601e-42 0)
(5.66797e-43 -5.5193e-42 0)
(-8.61119e-43 -5.02567e-42 0)
(-8.61119e-43 5.02567e-42 0)
(5.66797e-43 5.5193e-42 0)
(6.88432e-43 -1.96601e-42 0)
(-1.13494e-43 -2.95351e-42 0)
(-2.33878e-43 -6.02384e-43 0)
(-4.88884e-44 -1.23618e-43 0)
(-1.03512e-44 -1.6949e-44 0)
(-2.87318e-45 2.50195e-47 0)
(-1.052e-44 1.71822e-44 0)
(-5.01198e-44 1.25672e-43 0)
(-2.42583e-43 6.17248e-43 0)
(-1.51989e-43 3.05966e-42 0)
(5.05045e-43 2.44217e-42 0)
(6.98783e-43 -3.18773e-42 0)
(1.63435e-47 -6.15427e-42 0)
(-6.98614e-43 -3.18791e-42 0)
(-5.03564e-43 2.44028e-42 0)
(1.63344e-43 3.04092e-42 0)
(2.87635e-43 4.24412e-43 0)
(-4.86556e-37 1.92338e-37 0)
(-2.2725e-38 3.52807e-38 0)
(2.29824e-41 2.90576e-39 0)
(1.93811e-40 1.85026e-40 0)
(2.9798e-41 8.59556e-42 0)
(3.46188e-42 -1.45794e-43 0)
(2.94798e-43 1.3584e-43 0)
(3.78953e-44 2.19354e-43 0)
(1.78944e-44 4.54734e-44 0)
(3.45139e-45 9.43641e-45 0)
(7.01291e-46 1.32544e-45 0)
(9.71794e-47 1.8139e-46 0)
(6.68093e-50 4.02654e-47 0)
(-9.61757e-47 1.81579e-46 0)
(-6.87045e-46 1.32795e-45 0)
(-3.25647e-45 9.46687e-45 0)
(-1.53885e-44 4.58042e-44 0)
(-7.28969e-45 2.22165e-43 0)
(4.59014e-44 1.47176e-43 0)
(3.77169e-44 -4.14943e-43 0)
(-5.71466e-44 -3.77458e-43 0)
(-5.71466e-44 3.77458e-43 0)
(3.77169e-44 4.14943e-43 0)
(4.59014e-44 -1.47176e-43 0)
(-7.2897e-45 -2.22165e-43 0)
(-1.53887e-44 -4.58039e-44 0)
(-3.25801e-45 -9.46467e-45 0)
(-7.00702e-46 -1.30742e-45 0)
(-1.9673e-46 1.95153e-48 0)
(-7.12372e-46 1.32556e-45 0)
(-3.34216e-45 9.62374e-45 0)
(-1.59765e-44 4.69499e-44 0)
(-9.8441e-45 2.30282e-43 0)
(3.38806e-44 1.83314e-43 0)
(4.66021e-44 -2.40092e-43 0)
(1.24994e-48 -4.63261e-43 0)
(-4.65894e-44 -2.40107e-43 0)
(-3.37736e-44 1.83154e-43 0)
(1.06549e-44 2.28773e-43 0)
(1.91621e-44 3.2186e-44 0)
(-3.41676e-36 -9.2691e-38 0)
(-1.80032e-37 -1.16565e-38 0)
(-5.2174e-39 -1.09525e-39 0)
(6.05858e-40 -8.84036e-41 0)
(1.21118e-40 -6.86831e-42 0)
(1.56675e-41 -5.2578e-43 0)
(1.57062e-42 -2.53351e-44 0)
(1.45283e-43 1.26431e-44 0)
(1.30315e-44 2.97791e-45 0)
(1.16498e-45 6.45988e-46 0)
(1.16508e-46 9.23624e-47 0)
(1.154e-47 1.27936e-47 0)
(3.309e-49 2.86632e-48 0)
(-6.60552e-48 1.28315e-47 0)
(-4.70446e-47 9.29904e-47 0)
(-2.21589e-46 6.56066e-46 0)
(-1.03817e-45 3.1358e-45 0)
(-4.85652e-46 1.50323e-44 0)
(3.10917e-45 9.911e-45 0)
(2.55075e-45 -2.80649e-44 0)
(-3.86429e-45 -2.55048e-44 0)
(-3.86429e-45 2.55048e-44 0)
(2.55075e-45 2.80649e-44 0)
(3.10917e-45 -9.911e-45 0)
(-4.85653e-46 -1.50323e-44 0)
(-1.03818e-45 -3.13578e-45 0)
(-2.21696e-46 -6.55908e-46 0)
(-4.79912e-47 -9.15276e-47 0)
(-1.35578e-47 1.39799e-49 0)
(-4.87983e-47 9.28191e-47 0)
(-2.27492e-46 6.67136e-46 0)
(-1.07839e-45 3.21591e-45 0)
(-6.59156e-46 1.55938e-44 0)
(2.30026e-45 1.23766e-44 0)
(3.15716e-45 -1.62741e-44 0)
(9.31884e-50 -3.13766e-44 0)
(-3.15623e-45 -1.62753e-44 0)
(-2.29255e-45 1.23645e-44 0)
(7.16819e-46 1.54848e-44 0)
(1.30687e-45 2.19052e-45 0)
(1.23538e-36 -2.62038e-37 0)
(1.42927e-37 -4.43205e-38 0)
(1.41776e-38 -3.71962e-39 0)
(1.39005e-39 -2.47462e-40 0)
(1.2347e-40 -1.37133e-41 0)
(1.06898e-41 -6.11794e-43 0)
(8.62355e-43 -1.22542e-44 0)
(6.75785e-44 2.13731e-45 0)
(5.07621e-45 4.27685e-46 0)
(3.74654e-46 6.74372e-47 0)
(2.78476e-47 8.3848e-48 0)
(2.08852e-48 1.04253e-48 0)
(1.06719e-49 2.11196e-49 0)
(-4.23787e-49 8.9433e-49 0)
(-3.03409e-48 6.45424e-48 0)
(-1.4183e-47 4.52778e-47 0)
(-6.58519e-47 2.15373e-46 0)
(-3.04973e-47 1.02409e-45 0)
(1.97504e-46 6.72673e-46 0)
(1.61766e-46 -1.91114e-45 0)
(-2.45273e-46 -1.73548e-45 0)
(-2.45273e-46 1.73548e-45 0)
(1.61766e-46 1.91114e-45 0)
(1.97504e-46 -6.72673e-46 0)
(-3.04974e-47 -1.02409e-45 0)
(-6.58527e-47 -2.15372e-46 0)
(-1.41901e-47 -4.52668e-47 0)
(-3.09626e-48 -6.35195e-48 0)
(-8.80868e-49 9.78864e-51 0)
(-3.14894e-48 6.4422e-48 0)
(-1.45662e-47 4.60482e-47 0)
(-6.84429e-47 2.2093e-46 0)
(-4.1578e-47 1.06281e-45 0)
(1.46334e-46 8.41784e-46 0)
(2.006e-46 -1.10977e-45 0)
(6.48197e-51 -2.13873e-45 0)
(-2.00537e-46 -1.10986e-45 0)
(-1.45817e-46 8.40898e-46 0)
(4.53925e-47 1.05502e-45 0)
(8.3524e-47 1.50137e-46 0)
(7.0543e-36 3.70877e-37 0)
(6.76165e-37 2.80671e-38 0)
(5.81435e-38 2.39035e-39 0)
(4.95076e-39 1.98101e-40 0)
(3.91547e-40 1.63177e-41 0)
(3.03219e-41 1.26962e-42 0)
(2.2216e-42 9.62757e-44 0)
(1.5872e-43 7.01034e-45 0)
(1.08506e-44 5.00957e-46 0)
(7.22857e-46 3.57248e-47 0)
(4.64861e-47 2.56723e-48 0)
(2.91948e-48 1.94179e-49 0)
(1.74895e-49 2.15362e-50 0)
(-1.71407e-50 5.89953e-50 0)
(-1.92087e-49 4.20292e-49 0)
(-8.97227e-49 2.92792e-48 0)
(-4.13824e-48 1.38292e-47 0)
(-1.90222e-48 6.51883e-47 0)
(1.24176e-47 4.26549e-47 0)
(1.01572e-47 -1.21607e-46 0)
(-1.54133e-47 -1.10344e-46 0)
(-1.54133e-47 1.10344e-46 0)
(1.01572e-47 1.21607e-46 0)
(1.24176e-47 -4.26549e-47 0)
(-1.90223e-48 -6.51883e-47 0)
(-4.1383e-48 -1.38292e-47 0)
(-8.97712e-49 -2.92719e-48 0)
(-1.96627e-49 -4.13535e-49 0)
(-5.61866e-50 6.46121e-52 0)
(-1.99995e-49 4.1947e-49 0)
(-9.21693e-49 2.97831e-48 0)
(-4.30263e-48 1.41908e-47 0)
(-2.60246e-48 6.76887e-47 0)
(9.20845e-48 5.34918e-47 0)
(1.26143e-47 -7.07269e-47 0)
(4.36125e-52 -1.36232e-46 0)
(-1.261e-47 -7.07331e-47 0)
(-9.17454e-48 5.34312e-47 0)
(2.84979e-48 6.71698e-47 0)
(5.28618e-48 9.60824e-48 0)
(-1.37163e-36 2.07053e-36 0)
(-1.34565e-37 1.75244e-37 0)
(-1.18494e-38 1.47934e-38 0)
(-1.01998e-39 1.16526e-39 0)
(-8.15488e-41 8.98566e-41 0)
(-6.33664e-42 6.56039e-42 0)
(-4.65697e-43 4.66666e-43 0)
(-3.32176e-44 3.17625e-44 0)
(-2.26521e-45 2.10475e-45 0)
(-1.49975e-46 1.3446e-46 0)
(-9.5554e-48 8.37262e-48 0)
(-5.9145e-49 5.05911e-49 0)
(-3.55799e-50 3.0301e-50 0)
(-3.74861e-51 5.42184e-51 0)
(-1.17858e-50 2.69221e-50 0)
(-5.41039e-50 1.86098e-49 0)
(-2.47781e-49 8.75958e-49 0)
(-1.13046e-49 4.10252e-48 0)
(7.43785e-49 2.67616e-48 0)
(6.07563e-49 -7.65046e-48 0)
(-9.22807e-49 -6.93747e-48 0)
(-9.22807e-49 6.93747e-48 0)
(6.07563e-49 7.65046e-48 0)
(7.43785e-49 -2.67616e-48 0)
(-1.13046e-49 -4.10252e-48 0)
(-2.47783e-49 -8.75953e-49 0)
(-5.4125e-50 -1.86046e-49 0)
(-1.19091e-50 -2.6397e-50 0)
(-3.41946e-51 4.15167e-53 0)
(-1.21146e-50 2.67778e-50 0)
(-5.55837e-50 1.89316e-49 0)
(-2.57727e-49 8.9903e-49 0)
(-1.5521e-49 4.26132e-48 0)
(5.52038e-49 3.3619e-48 0)
(7.55694e-49 -4.45447e-48 0)
(2.78216e-53 -8.57717e-48 0)
(-7.55427e-49 -4.45488e-48 0)
(-5.49928e-49 3.35787e-48 0)
(1.70435e-49 4.22749e-48 0)
(3.18373e-49 6.07677e-49 0)
(-1.49766e-35 2.34127e-36 0)
(-1.43494e-36 1.88535e-37 0)
(-1.23483e-37 1.55724e-38 0)
(-1.04826e-38 1.2141e-39 0)
(-8.27044e-40 9.30607e-41 0)
(-6.37479e-41 6.7623e-42 0)
(-4.65012e-42 4.79064e-43 0)
(-3.30282e-43 3.24748e-44 0)
(-2.24419e-44 2.14336e-45 0)
(-1.48386e-45 1.363e-46 0)
(-9.45186e-47 8.44248e-48 0)
(-5.86191e-48 5.06328e-49 0)
(-3.51935e-49 2.96348e-50 0)
(-2.06926e-50 1.90855e-51 0)
(-1.86173e-51 1.72654e-51 0)
(-3.26199e-51 1.12802e-50 0)
(-1.45677e-50 5.28498e-50 0)
(-6.60398e-51 2.45867e-49 0)
(4.37261e-50 1.5988e-49 0)
(3.56775e-50 -4.58342e-49 0)
(-5.42307e-50 -4.1536e-49 0)
(-5.42307e-50 4.1536e-49 0)
(3.56775e-50 4.58342e-49 0)
(4.37261e-50 -1.5988e-49 0)
(-6.60382e-51 -2.45867e-49 0)
(-1.45643e-50 -5.28492e-50 0)
(-3.19871e-51 -1.12723e-50 0)
(-7.05513e-52 -1.60698e-51 0)
(-2.03252e-52 2.54878e-54 0)
(-7.17739e-52 1.63031e-51 0)
(-3.28538e-51 1.14719e-50 0)
(-1.5153e-50 5.42535e-50 0)
(-9.0939e-51 2.5548e-49 0)
(3.24742e-50 2.01203e-49 0)
(4.44317e-50 -2.67186e-49 0)
(1.71901e-54 -5.14281e-49 0)
(-4.44153e-50 -2.67213e-49 0)
(-3.23462e-50 2.00949e-49 0)
(1.00089e-50 2.53385e-49 0)
(1.88169e-50 3.65931e-50 0)
(-2.47381e-35 -1.30711e-37 0)
(-2.36162e-36 -7.8061e-38 0)
(-2.02403e-37 -8.63243e-39 0)
(-1.71361e-38 -7.30332e-40 0)
(-1.34809e-39 -5.74602e-41 0)
(-1.03694e-40 -4.21544e-42 0)
(-7.54771e-42 -2.99845e-43 0)
(-5.35201e-43 -2.03798e-44 0)
(-3.6305e-44 -1.34746e-45 0)
(-2.39725e-45 -8.58221e-47 0)
(-1.52496e-46 -5.32194e-48 0)
(-9.44708e-48 -3.19471e-49 0)
(-5.66547e-49 -1.86895e-50 0)
(-3.31257e-50 -1.04883e-51 0)
(-1.9203e-51 3.81916e-53 0)
(-2.8608e-52 6.64936e-52 0)
(-8.29447e-52 3.12449e-51 0)
(-3.71513e-52 1.44605e-50 0)
(2.47379e-51 9.37871e-51 0)
(2.01615e-51 -2.69487e-50 0)
(-3.06699e-51 -2.44085e-50 0)
(-3.06699e-51 2.44085e-50 0)
(2.01615e-51 2.69487e-50 0)
(2.47381e-51 -9.37871e-51 0)
(-3.71217e-52 -1.44605e-50 0)
(-8.2383e-52 -3.12464e-51 0)
(-1.8193e-52 -6.67947e-52 0)
(-4.02325e-53 -9.55392e-53 0)
(-1.16307e-53 1.52167e-55 0)
(-4.09332e-53 9.69311e-53 0)
(-1.86889e-52 6.7983e-52 0)
(-8.57373e-52 3.20811e-51 0)
(-5.12737e-52 1.50298e-50 0)
(1.83841e-51 1.18202e-50 0)
(2.51404e-51 -1.57236e-50 0)
(1.01804e-55 -3.0257e-50 0)
(-2.51308e-51 -1.57252e-50 0)
(-1.83097e-51 1.18047e-50 0)
(5.65539e-52 1.49033e-50 0)
(1.06956e-51 2.1615e-51 0)
(-7.41261e-37 -2.47328e-36 0)
(-7.06381e-38 -3.27245e-37 0)
(-6.04193e-39 -3.1148e-38 0)
(-5.10833e-40 -2.53401e-39 0)
(-4.01285e-41 -1.96851e-40 0)
(-3.08332e-42 -1.43656e-41 0)
(-2.2418e-43 -1.01915e-42 0)
(-1.58825e-44 -6.91296e-44 0)
(-1.07643e-45 -4.56375e-45 0)
(-7.1026e-47 -2.90251e-46 0)
(-4.51493e-48 -1.79772e-47 0)
(-2.79529e-49 -1.0779e-48 0)
(-1.67535e-50 -6.30023e-50 0)
(-9.7921e-52 -3.57658e-51 0)
(-5.77581e-53 -1.9268e-52 0)
(-1.31905e-53 2.7407e-53 0)
(-4.5776e-53 1.7722e-52 0)
(-2.04514e-53 8.1838e-52 0)
(1.36972e-52 5.29401e-52 0)
(1.11523e-52 -1.52473e-51 0)
(-1.69762e-52 -1.38026e-51 0)
(-1.69762e-52 1.38026e-51 0)
(1.11523e-52 1.52473e-51 0)
(1.36972e-52 -5.29402e-52 0)
(-2.04428e-53 -8.18409e-52 0)
(-4.56105e-53 -1.77783e-52 0)
(-1.01176e-53 -3.80973e-53 0)
(-2.24057e-54 -5.46737e-54 0)
(-6.49387e-55 8.18052e-57 0)
(-2.27965e-54 5.54776e-54 0)
(-1.03944e-53 3.87783e-53 0)
(-4.74775e-53 1.8256e-52 0)
(-2.83099e-53 8.5086e-52 0)
(1.01843e-52 6.68219e-52 0)
(1.39213e-52 -8.90439e-52 0)
(5.90231e-57 -1.71302e-51 0)
(-1.39158e-52 -8.90534e-52 0)
(-1.01421e-52 6.67306e-52 0)
(3.12818e-53 8.43521e-52 0)
(5.94832e-53 1.2286e-52 0)
(2.4643e-35 -3.00115e-37 0)
(2.35252e-36 -9.57081e-38 0)
(2.0162e-37 -1.02209e-38 0)
(1.70697e-38 -8.57711e-40 0)
(1.34286e-39 -6.73224e-41 0)
(1.03291e-40 -4.93517e-42 0)
(7.51832e-42 -3.5095e-43 0)
(5.33115e-43 -2.38499e-44 0)
(3.61632e-44 -1.57677e-45 0)
(2.38787e-45 -1.00421e-46 0)
(1.51899e-46 -6.22695e-48 0)
(9.41004e-48 -3.73786e-49 0)
(5.64322e-49 -2.18688e-50 0)
(3.29897e-50 -1.24287e-51 0)
(1.87337e-51 -6.86235e-53 0)
(1.03289e-52 -1.60241e-54 0)
(3.15993e-54 9.68792e-54 0)
(-7.93808e-55 4.53182e-53 0)
(7.35972e-54 2.92642e-53 0)
(5.97413e-54 -8.4421e-53 0)
(-9.09956e-54 -7.63917e-53 0)
(-9.09872e-54 7.63935e-53 0)
(5.97397e-54 8.44397e-53 0)
(7.34359e-54 -2.9251e-53 0)
(-1.09052e-54 -4.5327e-53 0)
(-2.44547e-54 -9.89172e-54 0)
(-5.44191e-55 -2.12269e-54 0)
(-1.21394e-55 -2.94618e-55 0)
(-3.57903e-56 -1.1022e-56 0)
(-1.22348e-55 3.07467e-55 0)
(-5.5962e-55 2.15974e-54 0)
(-2.54558e-54 1.01578e-53 0)
(-1.51342e-54 4.7143e-53 0)
(5.46263e-54 3.69811e-53 0)
(7.46458e-54 -4.93478e-53 0)
(1.394e-57 -9.49056e-53 0)
(-7.46207e-54 -4.93326e-53 0)
(-5.44102e-54 3.69187e-53 0)
(1.67522e-54 4.67198e-53 0)
(3.20295e-54 6.82472e-54 0)
(1.59365e-35 2.21229e-36 0)
(1.52749e-36 1.76769e-37 0)
(1.3149e-37 1.4546e-38 0)
(1.11654e-38 1.13161e-39 0)
(8.81126e-40 8.66181e-41 0)
(6.79309e-41 6.28644e-42 0)
(4.95617e-42 4.449e-43 0)
(3.52078e-43 3.0128e-44 0)
(2.39266e-44 1.98662e-45 0)
(1.58224e-45 1.2621e-46 0)
(1.00798e-46 7.80999e-48 0)
(6.25215e-48 4.67877e-49 0)
(3.75397e-49 2.73268e-50 0)
(2.19684e-50 1.55056e-51 0)
(1.24884e-51 8.58824e-53 0)
(6.92426e-53 4.72228e-54 0)
(3.61409e-54 6.64704e-55 0)
(1.55169e-55 2.40594e-54 0)
(4.04387e-55 1.73624e-54 0)
(3.06337e-55 -4.3874e-54 0)
(-4.8386e-55 -4.0642e-54 0)
(-4.66008e-55 4.09671e-54 0)