/*--------------------------------*- C++ -*----------------------------------*\
| =========                 |                                                 |
| \\      /  F ield         | OpenFOAM: The Open Source CFD Toolbox           |
|  \\    /   O peration     | Version:  2.4.0                                 |
|   \\  /    A nd           | Web:      www.OpenFOAM.org                      |
|    \\/     M anipulation  |                                                 |
\*---------------------------------------------------------------------------*/
FoamFile
{
    version     2.0;
    format      ascii;
    class       surfaceScalarField;
    location    "0.95";
    object      phi;
}
// * * * * * * * * * * * * * * * * * * * * * * * * * * * * * * * * * * * * * //

dimensions      [0 3 -1 0 0 0 0];

internalField   nonuniform List<scalar> 
15214
(
4.9997e-39
1.41613e-40
2.47627e-38
7.05935e-40
3.62542e-38
4.00022e-39
6.07364e-37
2.81675e-39
1.26968e-40
-7.68246e-39
-6.06509e-37
-7.66156e-39
-3.0461e-38
2.97853e-39
5.17988e-39
4.84857e-39
5.68299e-38
5.43378e-39
6.4878e-37
7.12213e-39
6.37914e-37
-3.9786e-39
-5.4043e-37
-1.04991e-38
3.06766e-38
2.81667e-39
6.13251e-37
6.81616e-39
3.71062e-38
-2.98172e-39
2.49035e-38
-4.02479e-39
5.06806e-39
-7.08166e-40
7.26325e-40
-1.41028e-40
1.12096e-40
-2.13217e-41
1.49182e-41
-3.19562e-42
1.97106e-42
-4.22268e-43
2.3898e-43
-5.37245e-44
2.84714e-44
-6.31056e-45
6.26627e-45
-6.36329e-46
2.87675e-44
6.44031e-46
2.41757e-43
6.37868e-45
1.996e-42
5.436e-44
1.51283e-41
4.27858e-43
1.13822e-40
3.24287e-42
7.39215e-40
2.16888e-41
5.16475e-39
1.43789e-40
2.55138e-38
7.26184e-40
4.14179e-38
4.14365e-39
6.32861e-37
3.54243e-39
4.14179e-38
-3.54243e-39
2.55138e-38
-4.14365e-39
5.16476e-39
-7.26184e-40
7.39215e-40
-1.43789e-40
1.13821e-40
-2.1691e-41
1.51226e-41
-3.258e-42
1.96708e-42
-5.26539e-43
1.32798e-43
-6.07718e-43
-3.16996e-43
-2.8314e-42
-2.35302e-43
-1.03692e-41
3.60186e-43
-3.36878e-41
-6.70785e-42
2.0688e-39
-1.74292e-40
9.59189e-39
-1.21404e-39
4.66225e-38
-6.35692e-39
7.14227e-38
-4.28387e-39
6.49081e-41
1.21076e-38
-7.10076e-38
1.20771e-38
-4.4161e-38
-4.53529e-39
2.16967e-39
-7.79808e-39
5.45312e-38
-8.82467e-39
1.20205e-37
-1.11167e-38
8.34734e-38
6.32573e-39
-1.26831e-38
1.63914e-38
1.21154e-38
-4.28376e-39
7.39311e-38
-1.064e-38
4.7036e-38
4.53946e-39
9.66483e-39
6.3924e-39
2.11298e-39
1.22089e-39
3.49274e-40
2.21074e-40
5.68497e-41
3.10269e-41
8.08759e-42
4.18908e-42
1.10813e-42
5.09056e-43
1.39547e-43
5.98424e-44
1.70599e-44
6.59409e-45
3.84627e-45
6.32018e-46
1.72446e-44
-6.38992e-46
1.41247e-43
-6.65859e-45
1.12302e-42
-6.04737e-44
8.20985e-42
-5.14938e-43
5.78145e-41
-4.24218e-42
3.5622e-40
-3.14747e-41
2.16146e-39
-2.2474e-40
9.95503e-39
-1.24761e-39
4.87835e-38
-6.58143e-39
8.13686e-38
-5.53087e-39
4.87835e-38
5.53087e-39
9.95503e-39
6.58143e-39
2.16146e-39
1.24761e-39
3.56219e-40
2.24739e-40
5.78058e-41
3.14617e-41
8.16075e-42
4.14936e-42
8.73146e-43
-9.85463e-44
-8.08156e-43
-3.43264e-42
-3.02685e-42
-1.81321e-41
-2.12026e-42
-6.79375e-41
3.03871e-42
-2.24238e-40
-4.46895e-41
5.88685e-40
-8.029e-41
2.22448e-39
-5.1424e-40
8.40692e-39
-2.20468e-39
1.20645e-38
-1.33694e-39
2.31678e-41
4.17186e-39
-1.19284e-38
4.15672e-39
-7.69498e-39
-1.45337e-39
6.19623e-40
-2.82245e-39
1.01722e-38
-3.25137e-39
2.10872e-38
-3.76087e-39
1.49986e-38
2.18875e-39
-6.99829e-40
5.50868e-39
2.95723e-39
-1.33678e-39
1.27926e-38
-3.5407e-39
8.54219e-39
1.45556e-39
2.24964e-39
2.22209e-39
5.99572e-40
5.1715e-40
1.12526e-40
1.01456e-40
2.01168e-41
1.5451e-41
3.06023e-42
2.19715e-42
4.41079e-43
2.80547e-43
5.7755e-44
3.42147e-44
7.28491e-45
3.89931e-45
1.68308e-45
3.82862e-46
7.36715e-45
-3.8729e-46
5.84969e-44
-3.93938e-45
4.47413e-43
-3.45971e-44
3.1106e-42
-2.84014e-43
2.04985e-41
-2.22737e-42
1.1513e-40
-1.56965e-41
6.16513e-40
-1.03365e-40
2.34116e-39
-5.30335e-40
9.02308e-39
-2.30753e-39
1.44022e-38
-1.86684e-39
9.02308e-39
1.86684e-39
2.34116e-39
2.30753e-39
6.16511e-40
5.30334e-40
1.15122e-40
1.03355e-40
2.04418e-41
1.56223e-41
2.78663e-42
1.69404e-42
-1.22291e-42
-3.29103e-42
-6.38006e-42
-2.06618e-41
-2.09523e-41
-1.09591e-40
-1.48159e-41
-4.20021e-40
2.045e-41
-1.41354e-39
-2.81683e-40
1.22441e-40
-3.38753e-41
3.79937e-40
-1.66086e-40
1.16638e-39
-6.46464e-40
1.58207e-39
-3.73165e-40
5.90839e-42
1.21836e-39
-1.54979e-39
1.21309e-39
-1.01569e-39
-4.12157e-40
1.29469e-40
-8.41638e-40
1.4549e-39
-9.75655e-40
2.87675e-39
-1.09096e-39
2.11163e-39
6.38276e-40
1.19887e-40
1.59096e-39
5.35479e-40
-3.72426e-40
1.73664e-39
-1.01612e-39
1.19831e-39
4.12971e-40
3.86056e-40
6.50242e-40
1.24406e-40
1.63652e-40
2.62395e-41
3.43238e-41
5.08179e-42
5.52575e-42
8.19143e-43
8.23136e-43
1.23078e-43
1.09213e-43
1.6654e-44
1.37424e-44
2.15521e-45
1.60711e-45
5.08255e-46
1.60845e-46
2.1804e-45
-1.62771e-46
1.68775e-44
-1.62425e-45
1.24945e-43
-1.39031e-44
8.3361e-43
-1.10638e-43
5.18771e-42
-8.35231e-43
2.69313e-41
-5.62086e-42
1.28635e-40
-3.50345e-41
4.06967e-40
-1.68327e-40
1.29483e-39
-6.78821e-40
1.98806e-39
-5.40644e-40
1.29483e-39
5.40644e-40
4.06966e-40
6.7882e-40
1.28628e-40
1.68321e-40
2.68789e-41
3.49855e-41
4.83906e-42
5.2312e-42
-1.18544e-42
-2.00213e-42
-1.04478e-41
-1.92308e-41
-4.14638e-41
-1.1427e-40
-1.37444e-40
-6.19984e-40
-9.8706e-41
-2.44618e-39
1.30573e-40
-8.41931e-39
-1.67957e-39
2.19553e-41
-5.17432e-41
5.55035e-41
-6.20654e-41
1.24971e-40
-1.60637e-40
1.54641e-40
-8.42554e-41
1.38432e-42
2.72116e-40
-1.47638e-40
2.71537e-40
-9.61801e-41
-8.999e-41
2.40575e-41
-1.9213e-40
1.63284e-40
-2.23903e-40
3.02703e-40
-2.43095e-40
2.37276e-40
1.42821e-40
5.43487e-41
3.53022e-40
8.41992e-41
-7.98633e-41
1.8358e-40
-2.24115e-40
1.31182e-40
9.01833e-41
5.61583e-41
1.45997e-40
2.2936e-41
3.92138e-41
5.39339e-42
8.66823e-42
1.12566e-42
1.4621e-42
1.90711e-43
2.2611e-43
2.97312e-44
3.09658e-44
4.13796e-45
3.99573e-45
5.4769e-46
4.77251e-46
1.3146e-46
4.85061e-47
5.5429e-46
-4.91037e-47
4.19564e-45
-4.82498e-46
3.02043e-44
-4.04417e-45
1.94293e-43
-3.1388e-44
1.15112e-42
-2.29616e-43
5.55329e-42
-1.48897e-42
2.38627e-41
-8.86242e-42
6.03663e-41
-4.04418e-41
1.48341e-40
-1.53141e-40
2.14534e-40
-1.20274e-40
1.4834e-40
1.20274e-40
6.0361e-41
1.53138e-40
2.38214e-41
4.04144e-41
5.25447e-42
8.62957e-42
-8.6526e-43
-3.88109e-43
-1.1671e-41
-1.36666e-41
-6.32939e-41
-9.67135e-41
-2.5389e-40
-5.86846e-40
-8.59743e-40
-3.28616e-39
-6.28683e-40
-1.34684e-38
7.91905e-40
-4.77379e-38
-9.51661e-39
-6.5591e-43
-2.64421e-40
1.18965e-41
-1.4146e-40
1.25853e-41
-1.23986e-40
1.08557e-41
-4.07377e-41
6.96061e-43
4.97138e-41
-7.86185e-42
5.41579e-41
-4.69684e-42
-1.81623e-41
4.0783e-42
-3.95468e-41
1.41122e-41
-4.62033e-41
2.28109e-41
-4.9249e-41
2.11304e-41
2.89551e-41
1.25151e-41
7.12708e-41
1.21664e-41
-1.5741e-41
1.42388e-41
-4.50251e-41
1.08111e-41
1.80445e-41
7.37564e-42
2.96884e-41
3.85572e-42
8.31805e-42
9.94541e-43
1.92204e-42
2.20497e-43
3.36642e-43
3.89076e-44
5.37606e-44
6.25128e-45
7.56018e-45
8.90831e-46
9.96797e-46
1.2017e-46
1.21197e-46
2.92841e-47
1.2481e-47
1.21656e-46
-1.26385e-47
9.03656e-46
-1.22564e-46
6.35481e-45
-1.00926e-45
3.96763e-44
-7.66719e-45
2.25829e-43
-5.4633e-44
1.02696e-42
-3.43177e-43
4.03552e-42
-1.96799e-42
8.13711e-42
-8.59893e-42
1.3594e-41
-3.12586e-41
1.7314e-41
-2.43325e-41
1.35908e-41
2.43311e-41
8.1103e-42
3.12462e-41
3.82117e-42
8.48496e-42
-5.47768e-43
9.87631e-43
-1.05731e-41
-7.68706e-42
-6.47362e-41
-6.05988e-41
-3.53624e-40
-4.3353e-40
-1.45578e-39
-2.72154e-39
-5.05602e-39
-1.58823e-38
-3.77316e-39
-6.84744e-38
4.48678e-39
-2.50952e-37
-5.01597e-38
-1.89691e-41
-1.43839e-39
3.49318e-41
-7.20763e-40
1.98678e-41
-5.23805e-40
9.7792e-42
-1.36726e-40
2.69717e-42
-2.02237e-41
1.20484e-42
4.77145e-42
6.55524e-43
-4.10211e-42
6.80905e-43
-7.4249e-42
7.5001e-43
-8.57504e-42
5.20911e-43
-8.9856e-42
1.29892e-42
5.28265e-42
2.35905e-42
1.29596e-41
1.72756e-42
-2.80129e-42
4.43958e-43
-8.15083e-42
4.67214e-43
3.25669e-42
9.43174e-43
5.43201e-42
6.23127e-43
1.57645e-42
1.72529e-43
3.7781e-43
4.00808e-44
6.82982e-44
7.30085e-45
1.12027e-44
1.202e-45
1.61104e-45
1.74636e-46
2.16316e-46
2.39357e-47
2.67052e-47
5.90769e-48
2.78129e-48
2.42383e-47
-2.81713e-48
1.77219e-46
-2.70133e-47
1.22257e-45
-2.19093e-46
7.45117e-45
-1.63458e-45
4.11023e-44
-1.13916e-44
1.7858e-43
-6.96867e-44
6.55554e-43
-3.87349e-43
1.07319e-42
-1.63311e-42
9.02939e-43
-5.73833e-42
6.81572e-43
-4.43325e-42
8.88338e-43
4.42813e-42
9.46972e-43
5.69337e-42
-3.67147e-43
1.2177e-42
-7.45454e-42
-3.24111e-42
-5.33412e-41
-3.02518e-41
-3.27769e-40
-2.35017e-40
-1.84057e-39
-1.74116e-39
-7.82745e-39
-1.1462e-38
-2.81013e-38
-7.09429e-38
-2.14552e-38
-3.27913e-37
2.39278e-38
-1.26388e-36
-2.51002e-37
-2.76733e-41
-7.4467e-39
2.51878e-40
-3.57157e-39
1.25527e-40
-2.58818e-39
5.98018e-41
-6.51163e-40
1.50986e-41
-1.41284e-40
3.60711e-42
-2.26233e-41
7.99321e-43
-4.37967e-42
1.9895e-43
-1.79606e-42
-1.62949e-44
-1.55312e-42
-2.13983e-43
-1.54755e-42
3.51125e-45
9.03585e-43
3.94201e-43
2.21416e-42
2.4473e-43
-4.70444e-43
-1.03488e-43
-1.38741e-42
-4.82184e-44
5.53567e-43
1.21738e-43
9.32413e-43
9.67635e-44
2.77948e-43
2.81944e-44
6.86401e-44
6.78044e-45
1.27308e-44
1.26622e-45
2.13495e-45
2.12596e-46
3.12765e-46
3.13871e-47
4.26426e-47
4.35989e-48
5.33257e-48
1.08787e-48
5.6072e-49
4.41606e-48
-5.68076e-49
3.1862e-47
-5.39527e-48
2.16336e-46
-4.32025e-47
1.29317e-45
-3.17459e-46
6.96052e-45
-2.17212e-45
2.92388e-44
-1.29997e-44
1.02208e-43
-7.04525e-44
1.42656e-43
-2.8847e-43
1.71116e-44
-9.87814e-43
-9.87878e-44
-7.59857e-43
-4.27504e-44
7.45563e-43
-3.81186e-43
8.60821e-43
-4.20766e-42
-9.01605e-43
-3.27334e-41
-1.05105e-41
-2.34393e-40
-9.06132e-41
-1.47951e-39
-7.27513e-40
-8.58636e-39
-5.67179e-39
-3.7962e-38
-4.01132e-38
-1.41597e-37
-2.70118e-37
-1.10773e-37
-1.3801e-36
1.14401e-37
-5.60242e-36
-1.11971e-36
6.66892e-40
-3.52184e-38
1.89013e-39
-1.65507e-38
7.98999e-40
-1.21429e-38
3.40251e-40
-2.9281e-39
8.11442e-41
-6.19155e-40
1.73505e-41
-1.01567e-40
3.01839e-42
-1.56477e-41
4.871e-43
-2.31803e-42
4.97531e-44
-5.12527e-43
-4.81186e-44
-2.79905e-43
-1.47793e-44
1.41698e-43
6.14518e-44
3.54841e-43
3.48217e-44
-7.43645e-44
-2.96245e-44
-2.21849e-43
-1.72505e-44
8.84149e-44
1.61701e-44
1.50194e-43
1.45657e-44
4.57957e-44
4.39535e-45
1.15881e-44
1.08433e-45
2.19522e-45
2.06461e-46
3.74891e-46
3.52169e-47
5.57756e-47
5.26856e-48
7.7024e-48
7.40101e-49
9.73759e-49
1.86379e-49
1.03227e-49
7.49782e-49
-1.04602e-49
5.34973e-48
-9.85401e-49
3.58493e-47
-7.80556e-48
2.10962e-46
-5.66328e-47
1.11391e-45
-3.81607e-46
4.56305e-45
-2.24323e-45
1.54102e-44
-1.19073e-44
1.91707e-44
-4.76239e-44
-9.92333e-45
-1.59734e-43
-5.37162e-44
-1.24627e-43
-2.25896e-43
9.34284e-44
-1.89885e-42
-1.21475e-43
-1.60603e-41
-2.63538e-42
-1.24919e-40
-2.44158e-41
-9.18983e-40
-2.17142e-40
-5.9952e-39
-1.84329e-39
-3.62674e-38
-1.56645e-38
-1.68066e-37
-1.24324e-37
-6.64415e-37
-9.54931e-37
-5.32894e-37
-5.61256e-36
5.10032e-37
-2.53675e-35
-4.85688e-36
1.01521e-38
-1.58658e-37
1.38899e-38
-6.53544e-38
4.86622e-39
-4.65103e-38
1.77209e-39
-1.06938e-38
3.93762e-40
-2.16459e-39
7.99625e-41
-3.43338e-40
1.33171e-41
-5.09511e-41
2.05926e-42
-6.79127e-42
2.81223e-43
-8.93556e-43
2.70628e-44
-1.42219e-43
1.01372e-45
1.34643e-44
9.50961e-45
5.91133e-44
4.94563e-45
-1.25865e-44
-5.26802e-45
-3.75756e-44
-3.21308e-45
1.49591e-44
2.17621e-45
2.55806e-44
2.11077e-45
7.93714e-45
6.52926e-46
2.04629e-45
1.64211e-46
3.94026e-46
3.17615e-47
6.8245e-47
5.48886e-48
1.02769e-47
8.30421e-49
1.43358e-48
1.17781e-49
1.82812e-49
2.98979e-50
1.95056e-50
1.19324e-49
-1.97688e-50
8.43172e-49
-1.85027e-49
5.58616e-48
-1.45308e-48
3.24308e-47
-1.04378e-47
1.68354e-46
-6.94955e-47
6.73438e-46
-4.02886e-46
2.18067e-45
-2.10462e-45
2.00791e-45
-8.26861e-45
-8.43298e-45
-2.73096e-44
-7.03506e-44
-2.17798e-44
-6.12518e-43
9.3334e-45
-5.45166e-42
-9.04158e-44
-4.66513e-41
-1.20014e-42
-3.71592e-40
-1.24381e-41
-2.8184e-39
-1.36218e-40
-1.90815e-38
-1.57243e-39
-1.20746e-37
-1.91333e-38
-5.90566e-37
-2.18719e-37
-2.48509e-36
-2.20403e-36
-2.03486e-36
-1.6679e-35
1.72284e-36
-8.0858e-35
-1.59946e-35
-3.97349e-39
-1.13012e-40
-2.04826e-38
-5.92079e-40
-3.06923e-38
-3.68923e-39
-5.56991e-37
-2.68925e-39
7.67299e-45
7.09961e-39
5.56991e-37
7.09961e-39
3.06929e-38
-2.68923e-39
2.04903e-38
-3.68903e-39
4.00471e-39
-5.91157e-40
5.3166e-40
-1.1196e-40
7.7781e-41
-1.57009e-41
8.47029e-42
-2.25452e-42
-8.47205e-42
-5.48232e-43
-7.77964e-41
-2.25491e-42
-5.31798e-40
-1.57045e-41
-4.00593e-39
-1.11993e-40
-2.05002e-38
-5.91435e-40
-3.07721e-38
-3.69129e-39
-5.57533e-37
-2.7052e-39
-4.08385e-39
6.9854e-39
5.3596e-37
6.49248e-39
-4.08385e-39
-6.49248e-39
-5.57533e-37
-6.9854e-39
-3.07721e-38
2.7052e-39
-2.05002e-38
3.69129e-39
-4.00607e-39
5.91431e-40
-5.33036e-40
1.11959e-40
-8.77359e-41
1.54235e-41
-8.86835e-41
-2.91879e-44
-5.41477e-40
-1.56676e-41
-4.07417e-39
-1.13904e-40
-2.09527e-38
-6.04874e-40
-3.42353e-38
-3.78727e-39
-5.73939e-37
-3.18215e-39
-1.37451e-38
3.90349e-39
1.37438e-38
7.60646e-39
5.7393e-37
3.90323e-39
3.41543e-38
-3.18454e-39
2.05376e-38
-3.80133e-39
-6.44696e-40
-1.6438e-39
1.39377e-40
-7.98305e-39
1.01932e-39
-4.23294e-38
5.8706e-39
-6.62857e-38
4.11624e-39
5.32922e-45
-1.12074e-38
6.62858e-38
-1.12074e-38
4.23298e-38
4.11623e-39
7.98756e-39
5.87053e-39
1.66597e-39
1.02086e-39
2.55935e-40
1.73919e-40
3.93584e-41
2.26241e-41
4.56666e-42
2.91242e-42
-4.56775e-42
6.53576e-43
-3.93676e-41
2.9128e-42
-2.56016e-40
2.26278e-41
-1.66666e-39
1.73955e-40
-7.99288e-39
1.02119e-39
-4.23699e-38
5.87344e-39
-6.65471e-38
4.13918e-39
-1.70609e-39
-1.10306e-38
5.8037e-38
-1.01636e-38
-1.70609e-39
1.01636e-38
-6.65471e-38
1.10306e-38
-4.23699e-38
-4.13918e-39
-7.99289e-39
-5.87344e-39
-1.66674e-39
-1.02119e-39
-2.56711e-40
-1.73918e-40
-4.47643e-41
-2.22939e-41
-4.52905e-41
3.2415e-44
-2.61261e-40
2.25875e-41
-1.70085e-39
1.76464e-40
-8.20871e-39
1.0409e-39
-4.37746e-38
6.02441e-39
-7.28285e-38
4.98321e-39
-3.57871e-38
-6.20385e-39
3.57864e-38
-1.20947e-38
7.28233e-38
-6.20362e-39
4.37316e-38
4.98441e-39
7.98057e-39
6.01431e-39
7.61939e-40
-4.71706e-40
6.35242e-41
-1.8631e-39
4.33539e-40
-7.6762e-39
2.04974e-39
-1.13219e-38
1.31111e-39
1.26595e-45
-3.88799e-39
1.13219e-38
-3.88799e-39
7.67629e-39
1.3111e-39
1.86412e-39
2.0497e-39
4.76077e-40
4.34247e-40
8.29536e-41
7.99414e-41
1.39996e-41
1.12922e-41
1.72246e-42
1.53085e-42
-1.72294e-42
3.60673e-43
-1.40036e-41
1.53108e-42
-8.29873e-41
1.12944e-41
-4.76352e-40
7.99624e-41
-1.86615e-39
4.34429e-40
-7.6906e-39
2.05123e-39
-1.14069e-38
1.32257e-39
-4.90386e-40
-3.80652e-39
9.37278e-39
-3.44227e-39
-4.90386e-40
3.44227e-39
-1.14069e-38
3.80652e-39
-7.6906e-39
-1.32257e-39
-1.86615e-39
-2.05123e-39
-4.76386e-40
-4.34427e-40
-8.32656e-41
-7.99412e-41
-1.60599e-41
-1.11099e-41
-1.62679e-41
1.84683e-44
-8.49807e-41
1.12713e-41
-4.88392e-40
8.1269e-41
-1.9348e-39
4.44186e-40
-8.08169e-39
2.1197e-39
-1.27806e-38
1.67535e-39
-6.21759e-39
-2.20254e-39
6.21739e-39
-4.26233e-39
1.27794e-38
-2.20241e-39
8.0726e-39
1.67595e-39
1.88575e-39
2.11544e-39
3.23339e-40
-9.90662e-41
2.13684e-41
-3.20326e-40
1.3738e-40
-1.07253e-39
6.00864e-40
-1.50255e-39
3.69027e-40
1.62993e-46
-1.13941e-39
1.50255e-39
-1.13941e-39
1.07253e-39
3.69026e-40
3.20457e-40
6.00862e-40
9.94999e-41
1.37697e-40
1.94579e-41
2.71296e-41
3.55215e-42
4.05165e-42
4.59755e-43
5.75921e-43
-4.59899e-43
1.40815e-43
-3.55332e-42
5.76018e-43
-1.94676e-41
4.05257e-42
-9.95769e-41
2.7138e-41
-3.21002e-40
1.37768e-40
-1.07617e-39
6.01438e-40
-1.52255e-39
3.73148e-40
-1.03139e-40
-1.11171e-39
1.16209e-39
-9.97593e-40
-1.03139e-40
9.97593e-40
-1.52255e-39
1.11171e-39
-1.07617e-39
-3.73148e-40
-3.21003e-40
-6.01438e-40
-9.95867e-41
-1.37767e-40
-1.95456e-41
-2.71295e-41
-4.10705e-42
-3.98043e-42
-4.16468e-42
7.4128e-45
-2.00032e-41
4.04321e-42
-1.02603e-40
2.76259e-41
-3.36823e-40
1.41242e-40
-1.15567e-39
6.24445e-40
-1.73987e-39
4.83139e-40
-8.35213e-40
-6.52662e-40
8.35182e-40
-1.25713e-39
1.73973e-39
-6.52632e-40
1.15462e-39
4.83243e-40
3.30266e-40
6.22523e-40
1.01425e-40
-1.85758e-41
5.34616e-42
-4.66693e-41
3.29442e-41
-1.16191e-40
1.351e-40
-1.50269e-40
7.9908e-41
-1.3373e-47
-2.56186e-40
1.50269e-40
-2.56186e-40
1.16188e-40
7.99083e-41
4.66651e-41
1.35103e-40
1.84987e-41
3.30525e-41
4.0227e-42
6.86829e-42
7.9038e-43
1.07492e-42
1.06776e-43
1.58716e-43
-1.06813e-43
4.00129e-44
-7.90677e-43
1.58745e-43
-4.02513e-42
1.07519e-42
-1.85173e-41
6.87074e-42
-4.67926e-41
3.30728e-41
-1.16999e-40
1.35262e-40
-1.5442e-40
8.10032e-41
-1.93101e-41
-2.49159e-40
9.94534e-41
-2.22039e-40
-1.93102e-41
2.22039e-40
-1.5442e-40
2.49159e-40
-1.16999e-40
-8.10032e-41
-4.67929e-41
-1.35262e-40
-1.85198e-41
-3.30726e-41
-4.04405e-42
-6.86826e-42
-9.20336e-43
-1.05467e-42
-9.3418e-43
2.15327e-45
-4.15027e-42
1.07246e-42
-1.9185e-41
7.00429e-42
-5.00045e-41
3.39885e-41
-1.31348e-40
1.41036e-40
-1.81775e-40
1.07029e-40
-8.46828e-41
-1.48203e-40
8.4681e-41
-2.8426e-40
1.8178e-40
-1.48199e-40
1.31399e-40
1.07029e-40
4.98164e-41
1.40419e-40
2.39933e-41
-3.17416e-42
1.13711e-42
-6.13657e-42
6.92944e-42
-9.28542e-42
2.74826e-41
-9.76378e-42
1.58579e-41
8.29911e-48
-5.2193e-41
9.76379e-42
-5.21928e-41
9.28472e-42
1.586e-41
6.13104e-42
2.74959e-41
3.1328e-42
7.01957e-42
7.45268e-43
1.52653e-42
1.55362e-43
2.48104e-43
2.17333e-44
3.78551e-44
-2.17416e-44
9.78964e-45
-1.55427e-43
3.78626e-44
-7.45791e-43
2.48174e-43
-3.13673e-42
1.52714e-42
-6.15717e-42
7.02454e-42
-9.44453e-42
2.75338e-41
-1.05352e-41
1.6113e-41
-3.29262e-42
-5.06284e-41
2.86128e-42
-4.49202e-41
-3.29262e-42
4.49202e-41
-1.05352e-41
5.06284e-41
-9.44454e-42
-1.6113e-41
-6.15724e-42
-2.75337e-41
-3.13726e-42
-7.02447e-42
-7.49782e-43
-1.52652e-42
-1.82004e-43
-2.43148e-43
-1.849e-43
5.36874e-46
-7.71394e-43
2.47489e-43
-3.26701e-42
1.55881e-42
-6.74276e-42
7.23464e-42
-1.18059e-41
2.88073e-41
-1.33737e-41
2.15681e-41
-5.6748e-42
-3.04051e-41
5.6754e-42
-5.81204e-41
1.33812e-41
-3.0405e-41
1.18594e-41
2.15611e-41
6.88886e-42
2.86382e-41
5.01937e-42
-4.87989e-43
1.13342e-43
-7.75295e-43
8.88622e-43
-3.25561e-43
4.95511e-42
1.60811e-43
2.82836e-42
1.5245e-46
-9.56738e-42
-1.59868e-43
-9.56613e-42
3.30463e-43
2.84019e-42
7.83637e-43
5.034e-42
5.09212e-43
1.33172e-42
1.29729e-43
3.00652e-43
2.83152e-44
5.04386e-44
4.06965e-45
7.90879e-45
-4.07133e-45
2.08973e-45
-2.83282e-44
7.91047e-45
-1.29832e-43
5.04541e-44
-5.09971e-43
3.00786e-43
-7.88555e-43
1.33278e-42
-3.59635e-43
5.04191e-42
2.52276e-44
2.89169e-42
-5.38388e-43
-9.25741e-42
-1.07818e-42
-8.18277e-42
-5.38388e-43
8.18277e-42
2.52275e-44
9.25741e-42
-3.59637e-43
-2.89169e-42
-7.88568e-43
-5.04191e-42
-5.10075e-43
-1.33276e-42
-1.30601e-43
-3.0065e-43
-3.33344e-44
-4.93803e-44
-3.38888e-44
1.16438e-46
-1.34647e-43
5.03051e-44
-5.33572e-43
3.07369e-43
-8.89135e-43
1.37527e-42
-7.34191e-43
5.29108e-42
-2.2002e-43
3.91485e-42
4.94707e-44
-5.60661e-42
-4.91975e-44
-1.06851e-41
2.22387e-43
-5.60676e-42
7.50119e-43
3.91217e-42
9.40734e-43
5.25204e-42
9.38841e-43
4.68367e-43
-3.02024e-42
3.00165e-44
-2.4396e-42
1.02158e-43
4.25318e-43
1.93884e-43
4.20802e-43
1.02226e-45
-1.65113e-42
-1.86851e-43
-1.64533e-42
-5.95487e-44
4.79327e-43
1.01022e-43
8.64443e-43
7.93771e-44
2.34984e-43
2.12492e-44
5.47121e-44
4.79886e-45
9.41783e-45
7.0448e-46
1.51056e-45
-7.04791e-46
4.06296e-46
-4.80124e-45
1.5109e-45
-2.12677e-44
9.42093e-45
-7.95114e-44
5.47385e-44
-1.01875e-43
2.3519e-43
5.46114e-44
8.6596e-43
1.64869e-43
4.89012e-43
-8.43288e-44
-1.58845e-42
-3.10103e-43
-1.40006e-42
-8.43288e-44
1.40006e-42
1.64869e-43
1.58845e-42
5.46111e-44
-4.89012e-43
-1.01878e-43
-8.6596e-43
-7.95301e-44
-2.35187e-43
-2.14042e-44
-5.47118e-44
-5.67212e-45
-9.212e-45
-5.76981e-45
2.29424e-47
-2.21043e-44
9.39146e-45
-8.34919e-44
5.59905e-44
-1.18178e-43
2.43091e-43
-2.65951e-45
9.1105e-43
1.48178e-43
6.67774e-43
9.83678e-44
-9.68602e-43
-9.82972e-44
-1.84135e-42
-1.47641e-43
-9.68661e-43
6.1207e-45
6.67062e-43
1.2985e-43
9.02992e-43
1.63521e-43
8.2481e-42
1.4068e-41
1.32574e-42
-1.39875e-41
3.49664e-43
-2.05353e-42
8.82061e-44
-1.76586e-43
6.22473e-45
-2.9112e-43
-4.07377e-44
-2.67756e-43
-1.81224e-44
7.58551e-44
1.3403e-44
1.39271e-43
1.19767e-44
3.87412e-44
3.31769e-45
9.24882e-45
7.68432e-46
1.62619e-45
1.14676e-46
2.65728e-46
-1.14729e-46
7.25407e-47
-7.68831e-46
2.65791e-46
-3.32073e-45
1.62677e-45
-1.19983e-44
9.25373e-45
-1.35352e-44
3.87797e-44
1.74045e-44
1.39556e-43
3.79872e-44
7.77423e-44
-1.27699e-44
-2.55776e-43
-5.82982e-44
-2.24885e-43
-1.27699e-44
2.24885e-43
3.79872e-44
2.55776e-43
1.74044e-44
-7.77423e-44
-1.35356e-44
-1.39556e-43
-1.20015e-44
-3.87791e-44
-3.34338e-45
-9.2489e-45
-9.11174e-46
-1.58944e-45
-9.27303e-46
4.14195e-48
-3.45731e-45
1.62143e-45
-1.26332e-44
9.47314e-45
-1.60599e-44
4.0139e-44
8.88607e-45
1.47143e-43
3.73617e-44
1.0697e-43
2.22831e-44
-1.56891e-43
-2.22684e-44
-2.97611e-43
-3.72579e-44
-1.56906e-43
-8.24097e-45
1.06816e-43
1.82652e-44
1.4564e-43
2.66561e-44
1.069e-40
-1.83834e-40
1.5148e-41
-2.25059e-41
2.2876e-42
-2.46135e-42
2.76468e-43
-2.39716e-43
3.08622e-44
-7.01383e-44
-3.73517e-45
-4.75756e-44
-2.9846e-45
1.25908e-44
1.8298e-45
2.371e-44
1.74046e-45
6.71671e-45
4.93563e-46
1.63476e-45
1.16498e-46
2.92191e-46
1.76167e-47
4.844e-47
-1.76236e-47
1.3378e-47
-1.16542e-46
4.84527e-47
-4.93816e-46
2.92307e-46
-1.74121e-45
1.63578e-45
-1.82114e-45
6.7251e-45
3.18458e-45
2.37772e-44
6.43191e-45
1.31035e-44
-1.85818e-45
-4.35505e-44
-9.26135e-45
-3.82166e-44
-1.85818e-45
3.82166e-44
6.43191e-45
4.35505e-44
3.18458e-45
-1.31035e-44
-1.8212e-45
-2.37772e-44
-1.7417e-45
-6.725e-45
-4.97352e-46
-1.63488e-45
-1.38483e-46
-2.8542e-46
-1.4099e-46
7.70567e-49
-5.14848e-46
2.91312e-46
-1.83714e-45
1.67566e-45
-2.19415e-45
6.96864e-45
1.96176e-45
2.51132e-44
6.4905e-45
1.81384e-44
3.76166e-45
-2.6839e-44
-3.75899e-45
-5.08245e-44
-6.47265e-45
-2.68424e-44
-1.85419e-45
1.81061e-44
2.56208e-45
2.4827e-44
4.57978e-45
1.67508e-37
-9.16326e-37
1.63673e-37
-3.82713e-37
4.8643e-38
-2.7477e-37
1.5123e-38
-5.54673e-38
3.07106e-39
-1.0593e-38
5.87173e-40
-1.58964e-39
9.35842e-41
-2.27926e-40
1.40213e-41
-2.93205e-41
1.89161e-42
-3.62214e-42
2.40117e-43
-4.20633e-43
2.81389e-44
-4.39306e-44
4.6027e-45
5.57674e-46
1.0638e-45
-1.59402e-45
-8.25699e-46
-3.4043e-45
-5.32038e-46
1.33379e-45
3.09463e-46
2.29932e-45
3.13977e-46
7.26443e-46
9.88267e-47
1.91897e-46
2.52029e-47
3.77057e-47
4.93183e-48
6.65779e-48
8.60588e-49
1.01922e-48
1.31296e-49
1.44284e-49
1.87549e-50
1.86352e-50
4.78375e-51
2.00848e-51
1.89319e-50
-2.03451e-51
1.32413e-49
-1.88453e-50
8.64452e-49
-1.46024e-49
4.89568e-48
-1.03217e-48
2.41676e-47
-6.74057e-48
8.26441e-47
-3.80634e-47
1.08857e-46
-1.91467e-46
-2.03639e-45
-6.88545e-46
-2.54309e-44
-1.69457e-45
-2.50782e-43
6.17987e-45
-2.39922e-42
8.40804e-44
-2.18791e-41
8.02014e-43
-1.92135e-40
7.34141e-42
-1.57626e-39
6.04263e-41
-1.24393e-38
4.05312e-40
-8.80017e-38
1.06191e-39
-5.95511e-37
-2.65268e-38
-3.12666e-36
-6.65486e-37
-1.53633e-35
-9.29701e-36
-1.2667e-35
-9.45032e-35
1.28416e-35
-5.58946e-35
-9.4694e-35
1.48103e-35
2.19327e-36
-1.26622e-36
1.73142e-36
-1.11715e-36
3.97859e-37
-3.16087e-37
9.62775e-38
-5.25084e-38
1.71379e-38
-9.04333e-39
2.96845e-39
-1.29762e-39
4.43864e-40
-1.82364e-40
6.34095e-41
-2.32184e-41
8.2678e-42
-2.85183e-42
1.02841e-42
-3.27701e-43
1.19769e-43
-3.59503e-44
1.34715e-44
-3.28902e-45
1.47335e-45
-4.84765e-46
7.09353e-47
-3.48544e-46
-3.17729e-47
1.20573e-46
2.6261e-47
2.13973e-46
2.60125e-47
6.84742e-47
8.2872e-48
1.82784e-47
2.14484e-48
3.62642e-48
4.25277e-49
6.45186e-49
7.51214e-50
9.9435e-50
1.15844e-50
1.41495e-50
1.6713e-51
1.83572e-51
4.33604e-52
1.98535e-52
1.73786e-51
-2.00076e-52
1.23347e-50
-1.84335e-51
8.35491e-50
-1.41477e-50
5.1972e-49
-9.84771e-50
3.19903e-48
-6.25384e-49
1.98784e-47
-3.3222e-48
1.51184e-46
-1.42352e-47
1.33914e-45
-1.91089e-47
1.33279e-44
3.49786e-46
1.30593e-43
5.9863e-45
1.22838e-42
6.33956e-44
1.09664e-41
6.18161e-43
9.3672e-41
5.72172e-42
7.47849e-40
4.7935e-41
5.67769e-39
3.37434e-40
3.87839e-38
1.23027e-39
2.47324e-37
-1.44254e-38
1.24448e-36
-4.39639e-37
5.43258e-36
-6.4762e-36
5.80223e-36
-6.8974e-35
-1.29666e-36
-2.44861e-33
-6.92146e-35
-3.32446e-36
3.9551e-35
-1.97112e-35
2.85435e-36
-1.40853e-36
2.19945e-36
4.48123e-38
4.97434e-37
3.03993e-38
8.05378e-38
7.71933e-39
1.34118e-38
1.24924e-39
1.921e-39
1.84034e-40
2.6761e-40
2.37904e-41
3.40441e-41
2.93293e-42
4.16274e-42
3.36607e-43
4.77169e-43
3.71455e-44
5.25549e-44
3.92961e-45
5.50572e-45
3.83607e-46
5.48377e-46
1.15388e-47
4.97098e-47
1.40471e-47
7.07837e-48
1.85461e-47
2.62739e-48
5.92525e-48
7.42001e-49
1.59665e-48
1.8691e-49
3.20104e-49
3.69697e-50
5.75163e-50
6.54742e-51
8.94334e-51
1.01407e-51
1.28255e-51
1.48066e-52
1.67532e-52
5.39058e-53
1.81132e-53
3.5905e-52
-1.97771e-53
3.72861e-51
-1.8741e-52
4.03937e-50
-1.53496e-51
4.47268e-49
-1.20974e-50
5.02051e-48
-9.62171e-50
5.59079e-47
-7.84141e-49
6.12672e-46
-7.02777e-48
6.51394e-45
-6.76459e-47
6.70857e-44
-6.99545e-46
6.6278e-43
-7.25852e-45
6.30436e-42
-7.43344e-44
5.69987e-41
-7.2503e-43
4.9477e-40
-6.65964e-42
4.01869e-39
-5.43424e-41
3.12503e-38
-3.49021e-40
2.18909e-37
-4.85858e-40
1.45498e-36
3.337e-38
7.63579e-36
7.52694e-37
3.67885e-35
1.03648e-35
3.19275e-35
1.05931e-34
1.54268e-35
2.76865e-33
1.0611e-34
-3.05111e-35
2.37363e-36
-9.55476e-37
1.49454e-36
-7.22948e-37
3.49063e-37
1.46568e-37
8.60665e-38
4.40837e-38
1.56041e-38
9.75501e-39
2.74388e-39
1.53551e-39
4.15005e-40
2.24517e-40
5.98203e-41
2.90834e-41
7.85432e-42
3.59871e-42
9.82586e-43
4.14925e-43
1.14988e-43
4.59473e-44
1.2871e-44
4.83185e-45
1.3677e-45
4.8797e-46
1.39046e-46
4.51636e-47
1.33271e-47
5.32467e-48
1.44966e-48
1.94368e-48
2.90319e-49
5.38717e-49
6.68235e-50
1.40133e-49
1.57804e-50
2.79639e-50
3.07598e-51
5.03054e-51
5.43727e-52
7.84912e-52
8.44396e-53
1.12947e-52
1.24103e-53
1.47982e-53
4.96182e-54
1.52945e-54
3.55979e-53
-2.79228e-54
3.79512e-52
-3.06172e-53
4.17707e-51
-3.20484e-52
4.65282e-50
-3.44092e-51
5.19922e-49
-3.81541e-50
5.72713e-48
-4.29524e-49
6.1721e-47
-4.87127e-48
6.43675e-46
-5.45253e-47
6.47506e-45
-5.98762e-46
6.23837e-44
-6.35976e-45
5.75235e-43
-6.51903e-44
5.03291e-42
-6.33754e-43
4.1823e-41
-5.76396e-42
3.24742e-40
-4.5633e-41
2.36156e-39
-2.60253e-40
1.54939e-38
4.63765e-40
9.13094e-38
4.40964e-38
4.33506e-37
8.66368e-37
1.5185e-36
1.13941e-35
2.56546e-36
1.12082e-34
1.95105e-36
8.62725e-35
1.12313e-34
5.78637e-37
2.81734e-37
-7.22295e-37
1.60528e-38
-1.33735e-37
1.70638e-38
1.87946e-38
8.40999e-39
7.89831e-39
2.04723e-39
1.92169e-39
4.35993e-40
3.24633e-40
7.40071e-41
4.95529e-41
1.15752e-41
6.66314e-42
1.60931e-42
8.47182e-43
2.10233e-43
1.00038e-43
2.54289e-44
1.12876e-44
2.92178e-45
1.20629e-45
3.17019e-46
1.23693e-46
3.28723e-47
1.19705e-47
3.23832e-48
1.22035e-48
3.24071e-49
2.28091e-49
4.21957e-50
4.98467e-50
7.00824e-51
1.19379e-50
1.40357e-51
2.33574e-51
2.58456e-52
4.18408e-52
4.47024e-53
6.5389e-53
6.86275e-54
9.43848e-54
5.66038e-55
1.24866e-54
-5.64372e-54
2.38055e-55
-7.7228e-53
1.28169e-54
-1.00318e-51
1.79391e-53
-1.26563e-50
2.4367e-52
-1.54927e-49
3.18658e-51
-1.84126e-48
4.02522e-50
-2.11859e-47
4.91614e-49
-2.36272e-46
5.81485e-48
-2.54134e-45
6.64773e-47
-2.64337e-44
7.35768e-46
-2.63642e-43
7.84629e-45
-2.53702e-42
8.0914e-44
-2.31977e-41
8.00749e-43
-2.04344e-40
7.68776e-42
-1.68199e-39
7.10486e-41
-1.33295e-38
6.52926e-40
-9.46995e-38
5.93426e-39
-6.4441e-37
5.59888e-38
-3.39991e-36
5.12709e-37
-1.6832e-35
4.47483e-36
-1.38798e-35
3.04411e-35
1.42479e-35
1.43249e-34
3.04631e-35
1.68362e-35
2.692e-38
-1.42484e-37
-1.12432e-38
-2.77398e-38
-1.26109e-39
1.02742e-39
4.61854e-40
1.03738e-39
1.92174e-40
3.04099e-40
5.08951e-41
5.64959e-41
9.65037e-42
9.25383e-42
1.61852e-42
1.31029e-42
2.36159e-43
1.7348e-43
3.19516e-44
2.11396e-44
3.97166e-45
2.44595e-45
4.66195e-46
2.66708e-46
5.14801e-47
2.78186e-47
5.41952e-48
2.75521e-48
5.42399e-49
2.70656e-49
5.34212e-50
3.40722e-50
5.88408e-51
5.37677e-51
7.73433e-52
1.07188e-51
1.27945e-52
1.96832e-52
2.15681e-53
3.43931e-53
3.58705e-54
5.33195e-54
5.60775e-55
7.68632e-55
3.02433e-55
1.14594e-55
3.03572e-54
2.0394e-55
3.9672e-53
2.66286e-54
5.06519e-52
3.60727e-53
6.29319e-51
4.76573e-52
7.59069e-50
6.12851e-51
8.88445e-49
7.67e-50
1.00581e-47
9.32162e-49
1.10146e-46
1.10036e-47
1.16112e-45
1.25733e-46
1.17966e-44
1.39225e-45
1.14598e-43
1.48606e-44
1.06831e-42
1.53425e-43
9.42451e-42
1.52012e-42
7.93764e-41
1.46039e-41
6.21017e-40
1.34853e-40
4.60342e-39
1.23378e-39
3.03604e-38
1.10919e-38
1.85784e-37
1.02829e-37
8.76239e-37
9.20439e-37
3.51552e-36
7.88436e-36
2.80604e-36
5.26195e-35
-2.78083e-36
2.47051e-34
5.25334e-35
-3.47276e-36
3.19568e-39
-1.87884e-38
-2.96009e-39
-4.15116e-39
-5.64368e-40
-1.1707e-40
-2.94185e-41
9.55221e-41
1.17057e-41
3.57417e-41
4.99258e-42
7.33935e-42
1.10977e-42
1.28363e-42
2.03637e-43
1.90543e-43
3.14531e-44
2.61348e-44
4.43269e-45
3.2746e-45
5.68011e-46
3.87282e-46
6.82756e-47
4.29977e-47
7.6838e-48
4.55226e-48
8.2177e-49
4.57786e-49
8.34318e-50
4.48145e-50
8.2127e-51
4.85138e-51
8.36379e-52
6.12438e-52
9.36433e-53
9.93954e-53
1.26814e-53
1.65597e-53
1.87785e-54
2.76616e-54
2.97292e-55
4.21354e-55
1.39549e-55
6.03508e-56
1.3492e-54
9.64667e-57
1.81714e-53
2.56722e-56
2.39742e-52
3.44959e-55
3.0803e-51
4.6986e-54
3.85246e-50
6.24516e-53
4.67986e-49
8.08496e-52
5.5211e-48
1.0195e-50
6.30579e-47
1.24931e-49
6.97607e-46
1.4888e-48
7.43897e-45
1.72021e-47
7.66128e-44
1.93391e-46
7.55916e-43
2.11525e-45
7.1815e-42
2.2947e-44
6.47567e-41
2.53726e-43
5.60698e-40
3.07428e-42
4.53063e-39
4.28317e-41
3.50488e-38
6.83344e-40
2.42859e-37
1.12827e-38
1.59411e-36
1.76522e-37
8.1274e-36
2.42071e-36
3.76415e-35
2.76093e-35
3.09003e-35
2.44236e-34
-3.08746e-35
4.87712e-34
2.43716e-34
-3.7251e-35
3.57974e-40
-2.72783e-39
-4.15709e-40
-6.29188e-40
-9.16257e-41
-5.67435e-41
-1.06814e-41
4.52344e-42
9.80606e-44
3.48427e-42
3.97607e-43
8.34366e-43
1.08712e-43
1.59131e-43
2.19382e-44
2.49646e-44
3.5832e-45
3.56511e-45
5.24713e-46
4.60403e-46
6.91676e-47
5.57551e-47
8.49726e-48
6.30829e-48
9.73174e-49
6.78285e-49
1.05585e-49
6.91656e-50