/*--------------------------------*- C++ -*----------------------------------*\
| =========                 |                                                 |
| \\      /  F ield         | OpenFOAM: The Open Source CFD Toolbox           |
|  \\    /   O peration     | Version:  2.4.0                                 |
|   \\  /    A nd           | Web:      www.OpenFOAM.org                      |
|    \\/     M anipulation  |                                                 |
\*---------------------------------------------------------------------------*/
FoamFile
{
    version     2.0;
    format      ascii;
    class       volVectorField;
    location    "0.95";
    object      U;
}
// * * * * * * * * * * * * * * * * * * * * * * * * * * * * * * * * * * * * * //

dimensions      [0 1 -1 0 0 0 0];

internalField   nonuniform List<vector> 
7700
(
(1.67035e-35 5.56154e-36 0)
(1.25985e-34 3.316e-35 0)
(5.80728e-34 1.87252e-34 0)
(4.67779e-33 1.30984e-34 0)
(4.20835e-33 -3.58453e-34 0)
(-4.20473e-33 -3.57579e-34 0)
(-4.65701e-33 1.38066e-34 0)
(-4.36167e-34 2.26742e-34 0)
(5.83998e-34 2.54596e-34 0)
(5.26173e-33 3.31628e-34 0)
(9.03024e-33 -1.86354e-34 0)
(7.27774e-34 -4.89435e-34 0)
(-3.47983e-33 1.30981e-34 0)
(4.35532e-33 3.18209e-34 0)
(4.69883e-33 -1.38191e-34 0)
(5.83998e-34 -1.88273e-34 0)
(1.26734e-34 -3.3305e-35 0)
(1.79053e-35 -6.21299e-36 0)
(2.82357e-36 -8.89971e-37 0)
(3.756e-37 -1.25789e-37 0)
(5.01559e-38 -1.58665e-38 0)
(6.09685e-39 -1.94038e-39 0)
(7.23497e-40 -2.20854e-40 0)
(8.90594e-41 -2.17526e-41 0)
(8.97763e-41 2.20052e-41 0)
(7.31231e-40 2.23132e-40 0)
(6.16837e-39 1.9621e-39 0)
(5.07964e-38 1.60627e-38 0)
(3.80957e-37 1.27503e-37 0)
(2.86746e-36 9.03848e-37 0)
(1.82293e-35 6.32247e-36 0)
(1.2917e-34 3.40653e-35 0)
(5.98979e-34 1.93564e-34 0)
(4.80691e-33 1.65031e-34 0)
(4.80691e-33 -1.65031e-34 0)
(5.98979e-34 -1.93564e-34 0)
(1.2917e-34 -3.40653e-35 0)
(1.82293e-35 -6.32247e-36 0)
(2.86746e-36 -9.03854e-37 0)
(3.80931e-37 -1.27546e-37 0)
(5.06581e-38 -1.63406e-38 0)
(5.48121e-39 -3.48823e-39 0)
(-1.69124e-39 -7.86521e-39 0)
(-7.35566e-39 -2.73486e-38 0)
(6.40277e-40 -8.77432e-38 0)
(9.63921e-39 -1.74116e-38 0)
(7.70479e-36 -2.50552e-36 0)
(5.13377e-35 -1.79259e-35 0)
(2.22409e-34 -1.00927e-34 0)
(1.10817e-33 -7.01986e-35 0)
(9.30191e-34 1.92665e-34 0)
(-9.28338e-34 1.92242e-34 0)
(-1.09818e-33 -7.37893e-35 0)
(-1.62153e-34 -1.22109e-34 0)
(2.24074e-34 -1.37335e-34 0)
(1.33222e-33 -1.77933e-34 0)
(2.09837e-33 1.00496e-34 0)
(2.83909e-34 2.62863e-34 0)
(-6.45877e-34 -7.01975e-35 0)
(9.91644e-34 -1.71116e-34 0)
(1.11831e-33 7.38459e-35 0)
(2.24074e-34 1.01418e-34 0)
(5.17547e-35 1.80228e-35 0)
(8.54838e-36 3.16959e-36 0)
(1.41972e-36 4.29847e-37 0)
(2.0274e-37 5.68273e-38 0)
(2.8075e-38 6.75389e-39 0)
(3.55038e-39 7.81003e-40 0)
(4.32222e-40 8.46718e-41 0)
(5.46583e-41 8.0206e-42 0)
(5.51122e-41 -8.10696e-42 0)
(4.37038e-40 -8.548e-41 0)
(3.59408e-39 -7.89014e-40 0)
(2.84563e-38 -6.82956e-39 0)
(2.05848e-37 -5.75217e-38 0)
(1.44414e-36 -4.35802e-37 0)
(8.72218e-36 -3.21949e-36 0)
(5.29646e-35 -1.83942e-35 0)
(2.31146e-34 -1.04144e-34 0)
(1.16111e-33 -8.8585e-35 0)
(1.16111e-33 8.8585e-35 0)
(2.31146e-34 1.04144e-34 0)
(5.29646e-35 1.83942e-35 0)
(8.72217e-36 3.21949e-36 0)
(1.44411e-36 4.35762e-37 0)
(2.05633e-37 5.72386e-38 0)
(2.72697e-38 4.97785e-39 0)
(-2.35064e-39 -9.62635e-39 0)
(-2.07137e-38 -5.32365e-38 0)
(-6.56709e-38 -1.96418e-37 0)
(5.15991e-39 -6.39241e-37 0)
(8.15632e-38 -1.27344e-37 0)
(2.53358e-36 -1.25571e-36 0)
(1.42672e-35 -8.27319e-36 0)
(4.92183e-35 -3.62558e-35 0)
(1.9071e-34 -2.22474e-35 0)
(1.53604e-34 6.86167e-35 0)
(-1.52942e-34 6.83814e-35 0)
(-1.87489e-34 -2.40824e-35 0)
(-3.21218e-35 -4.61734e-35 0)
(4.98055e-35 -5.3102e-35 0)
(2.40504e-34 -6.19652e-35 0)
(3.61313e-34 3.60138e-35 0)
(6.67394e-35 9.08632e-35 0)
(-8.67121e-35 -2.22463e-35 0)
(1.7111e-34 -5.84955e-35 0)
(1.93984e-34 2.41159e-35 0)
(4.98054e-35 3.65304e-35 0)
(1.43979e-35 8.3241e-36 0)
(2.7135e-36 1.60119e-36 0)
(4.9791e-37 2.39715e-37 0)
(7.62135e-38 3.35732e-38 0)
(1.11238e-38 4.23154e-39 0)
(1.4643e-39 5.10399e-40 0)
(1.83993e-40 5.76287e-41 0)
(2.39145e-41 5.61837e-42 0)
(2.41196e-41 -5.68251e-42 0)
(1.86135e-40 -5.82126e-41 0)
(1.48333e-39 -5.16011e-40 0)
(1.12856e-38 -4.28283e-39 0)
(7.74892e-38 -3.40246e-38 0)
(5.07526e-37 -2.43424e-37 0)
(2.77822e-36 -1.63041e-36 0)
(1.48167e-35 -8.52922e-36 0)
(5.19987e-35 -3.78833e-35 0)
(2.05515e-34 -3.07713e-35 0)
(2.05515e-34 3.07713e-35 0)
(5.19987e-35 3.78833e-35 0)
(1.48167e-35 8.52922e-36 0)
(2.77819e-36 1.63038e-36 0)
(5.07311e-37 2.43182e-37 0)
(7.60866e-38 3.23048e-38 0)
(3.44218e-39 -7.10448e-39 0)
(-3.83433e-38 -6.44502e-38 0)
(-1.4374e-37 -3.38055e-37 0)
(-4.54228e-37 -1.26968e-36 0)
(3.13908e-38 -4.19983e-36 0)
(5.52241e-37 -8.37058e-37 0)
(5.95826e-37 -4.76952e-37 0)
(2.89857e-36 -2.82413e-36 0)
(7.94462e-36 -1.13212e-35 0)
(2.53433e-35 -6.60392e-36 0)
(1.9808e-35 2.14122e-35 0)
(-1.96394e-35 2.13208e-35 0)
(-2.45906e-35 -7.28141e-36 0)
(-4.39651e-36 -1.47352e-35 0)
(8.09148e-36 -1.70626e-35 0)
(3.34305e-35 -1.91944e-35 0)
(4.86703e-35 1.12196e-35 0)
(1.15944e-35 2.80143e-35 0)
(-8.17288e-36 -6.60152e-36 0)
(2.34551e-35 -1.7913e-35 0)
(2.61076e-35 7.29518e-36 0)
(8.09147e-36 1.14224e-35 0)
(2.92636e-36 2.83601e-36 0)
(6.24114e-37 5.88237e-37 0)
(1.24745e-37 9.37184e-38 0)
(2.02863e-38 1.38414e-38 0)
(3.09156e-39 1.82268e-39 0)
(4.21008e-40 2.27955e-40 0)
(5.42875e-41 2.65186e-41 0)
(7.22083e-42 2.6438e-42 0)
(7.28446e-42 -2.67523e-42 0)
(5.4943e-41 -2.67992e-41 0)
(4.26731e-40 -2.30596e-40 0)
(3.13913e-39 -1.84621e-39 0)
(2.06516e-38 -1.40422e-38 0)
(1.27403e-37 -9.53072e-38 0)
(6.412e-37 -6.00203e-37 0)
(3.02998e-36 -2.91543e-36 0)
(8.58462e-36 -1.19133e-35 0)
(2.8369e-35 -9.51513e-36 0)
(2.8369e-35 9.51513e-36 0)
(8.58462e-36 1.19133e-35 0)
(3.02995e-36 2.91541e-36 0)
(6.41015e-37 6.0003e-37 0)
(1.26093e-37 9.39469e-38 0)
(1.20115e-38 4.25258e-39 0)
(-4.58432e-38 -6.3916e-38 0)
(-2.52332e-37 -3.81431e-37 0)
(-9.31023e-37 -2.02691e-36 0)
(-2.99155e-36 -7.79438e-36 0)
(1.74539e-37 -2.63045e-35 0)
(3.55193e-36 -5.24168e-36 0)
(9.19369e-38 -2.54077e-37 0)
(5.34654e-37 -7.60018e-37 0)
(1.04939e-36 -2.62954e-36 0)
(2.51722e-36 -1.449e-36 0)
(1.89614e-36 4.88001e-36 0)
(-1.85663e-36 4.85767e-36 0)
(-2.35687e-36 -1.61294e-36 0)
(-3.8806e-37 -3.42736e-36 0)
(1.07465e-36 -3.99202e-36 0)
(3.58539e-36 -4.34849e-36 0)
(5.05359e-36 2.55443e-36 0)
(1.71814e-36 6.31872e-36 0)
(-1.67053e-37 -1.43545e-36 0)
(2.57005e-36 -4.01487e-36 0)
(2.66922e-36 1.61675e-36 0)
(1.07464e-36 2.60985e-36 0)
(5.28084e-37 6.95608e-37 0)
(1.26497e-37 1.52471e-37 0)
(2.7427e-38 2.55274e-38 0)
(4.69861e-39 3.92192e-39 0)
(7.44178e-40 5.34141e-40 0)
(1.04332e-40 6.86071e-41 0)
(1.37633e-41 8.16283e-42 0)
(1.86747e-42 8.27245e-43 0)
(1.88432e-42 -8.37381e-43 0)
(1.39348e-41 -8.25207e-42 0)
(1.05806e-40 -6.94333e-41 0)
(7.56206e-40 -5.41366e-40 0)
(4.78881e-39 -3.98216e-39 0)
(2.80635e-38 -2.59911e-38 0)
(1.30424e-37 -1.55842e-37 0)
(5.50602e-37 -7.17076e-37 0)
(1.17222e-36 -2.73572e-36 0)
(3.06135e-36 -2.152e-36 0)
(3.06134e-36 2.152e-36 0)
(1.1722e-36 2.73571e-36 0)
(5.5047e-37 7.16971e-37 0)
(1.29381e-37 1.54957e-37 0)
(2.05789e-38 1.89426e-38 0)
(-4.5273e-38 -4.74586e-38 0)
(-2.87812e-37 -3.51086e-37 0)
(-1.51856e-36 -2.08453e-36 0)
(-5.72733e-36 -1.13524e-35 0)
(-1.88092e-35 -4.49942e-35 0)
(8.66991e-37 -1.55384e-34 0)
(2.17335e-35 -3.10036e-35 0)
(-1.91563e-37 -8.62544e-37 0)
(1.72844e-37 -5.79355e-37 0)
(1.66674e-37 -8.37014e-37 0)
(1.92503e-37 -3.69239e-37 0)
(1.17314e-37 9.92258e-37 0)
(-9.74484e-38 1.0021e-36 0)
(-1.26924e-37 -3.29045e-37 0)
(-7.12105e-39 -7.18804e-37 0)
(1.23514e-37 -8.39818e-37 0)
(2.7924e-37 -8.97507e-37 0)
(3.71771e-37 5.27649e-37 0)
(2.31278e-37 1.2995e-36 0)
(1.25897e-37 -2.87999e-37 0)
(2.21325e-37 -8.21537e-37 0)
(1.85042e-37 3.29413e-37 0)
(1.23502e-37 5.40768e-37 0)
(8.6995e-38 1.50628e-37 0)
(2.30452e-38 3.45902e-38 0)
(5.33847e-39 6.02486e-39 0)
(9.54402e-40 9.57532e-40 0)
(1.55998e-40 1.34101e-40 0)
(2.24102e-41 1.76209e-41 0)
(3.01363e-42 2.13627e-42 0)
(4.15961e-43 2.19519e-43 0)
(4.1979e-43 -2.22278e-43 0)
(3.05222e-42 -2.16026e-42 0)
(2.27376e-41 -1.78401e-41 0)
(1.58625e-40 -1.35988e-40 0)
(9.73715e-40 -9.7296e-40 0)
(5.47131e-39 -6.14085e-39 0)
(2.38375e-38 -3.54093e-38 0)
(9.1334e-38 -1.5566e-37 0)
(1.40894e-37 -5.69063e-37 0)
(2.47069e-37 -4.43525e-37 0)
(2.47061e-37 4.43519e-37 0)
(1.40813e-37 5.6901e-37 0)
(9.06502e-38 1.55173e-37 0)
(1.84038e-38 3.12691e-38 0)
(-3.40368e-38 -2.7318e-38 0)
(-2.67714e-37 -2.47466e-37 0)
(-1.57982e-36 -1.736e-36 0)
(-8.51242e-36 -1.05796e-35 0)
(-3.30349e-35 -5.95632e-35 0)
(-1.11261e-34 -2.45654e-34 0)
(3.57724e-36 -8.74801e-34 0)
(1.24473e-34 -1.74365e-34 0)
(-1.19535e-36 -4.84367e-36 0)
(6.53986e-37 -2.47336e-36 0)
(3.42946e-37 -1.8386e-36 0)
(2.24069e-37 -5.09883e-37 0)
(5.50237e-38 8.05682e-38 0)
(2.19519e-38 1.66629e-37 0)
(1.24335e-38 -6.28992e-38 0)
(6.27482e-39 -1.34617e-37 0)
(1.31578e-38 -1.57251e-37 0)
(8.24705e-39 -1.65289e-37 0)
(6.61945e-39 9.72024e-38 0)
(3.0451e-38 2.38529e-37 0)
(3.68749e-38 -5.16927e-38 0)
(1.24287e-38 -1.50106e-37 0)
(2.41612e-40 5.99882e-38 0)
(1.30924e-38 9.99097e-38 0)
(1.38253e-38 2.88757e-38 0)
(3.95843e-39 6.88744e-39 0)
(9.65442e-40 1.23988e-39 0)
(1.78443e-40 2.02624e-40 0)
(2.99196e-41 2.90477e-41 0)
(4.38482e-42 3.89002e-42 0)
(5.99203e-43 4.7917e-43 0)
(8.39082e-44 4.98208e-44 0)
(8.46939e-44 -5.04606e-44 0)
(6.07055e-43 -4.8468e-43 0)
(4.45068e-42 -3.93977e-42 0)
(3.04409e-41 -2.94702e-41 0)
(1.82211e-40 -2.06022e-40 0)
(9.90826e-40 -1.26493e-39 0)
(4.10575e-39 -7.06006e-39 0)
(1.46034e-38 -2.99052e-38 0)
(1.60247e-38 -1.05499e-37 0)
(9.74463e-39 -8.15711e-38 0)
(9.70706e-39 8.15463e-38 0)
(1.56456e-38 1.05283e-37 0)
(1.13804e-38 2.79322e-38 0)
(-2.18586e-38 -9.95604e-39 0)
(-1.9089e-37 -1.38569e-37 0)
(-1.33144e-36 -1.06026e-36 0)
(-8.02291e-36 -7.6196e-36 0)
(-4.45059e-35 -4.81513e-35 0)
(-1.78885e-34 -2.83177e-34 0)
(-6.2311e-34 -1.23202e-33 0)
(1.07907e-35 -4.54076e-33 0)
(6.72094e-34 -9.08083e-34 0)
(-5.75569e-36 -2.61968e-35 0)
(4.96591e-36 -1.30807e-35 0)
(2.22256e-36 -9.46512e-36 0)
(1.35991e-36 -2.44068e-36 0)
(3.46794e-37 -5.16996e-37 0)
(8.41117e-38 -6.36612e-38 0)
(1.88331e-38 -2.56244e-38 0)
(3.97903e-39 -2.56127e-38 0)
(1.69889e-39 -2.77991e-38 0)
(-2.16394e-39 -2.86205e-38 0)
(-3.94302e-39 1.67974e-38 0)
(4.04323e-39 4.11385e-38 0)
(7.20704e-39 -8.7593e-39 0)
(-2.22584e-40 -2.57889e-38 0)
(-2.73089e-39 1.02913e-38 0)
(1.35477e-39 1.73133e-38 0)
(2.11958e-39 5.14405e-39 0)
(6.41998e-40 1.26572e-39 0)
(1.62653e-40 2.33998e-40 0)
(3.08566e-41 3.91306e-41 0)
(5.28058e-42 5.71857e-42 0)
(7.86791e-43 7.78077e-43 0)
(1.08979e-43 9.71294e-44 0)
(1.54501e-44 1.01996e-44 0)
(1.5597e-44 -1.03331e-44 0)
(1.10435e-43 -9.82683e-44 0)
(7.9889e-43 -7.88262e-43 0)
(5.37521e-42 -5.80408e-42 0)
(3.15312e-41 -3.98089e-41 0)
(1.67118e-40 -2.38916e-40 0)
(6.6734e-40 -1.29894e-39 0)
(2.24962e-39 -5.33742e-39 0)
(1.8217e-39 -1.83343e-38 0)
(-1.33334e-39 -1.40986e-38 0)
(-1.486e-39 1.40129e-38 0)
(2.65932e-40 1.75799e-38 0)
(-1.11448e-38 -1.65415e-39 0)
(-1.08939e-37 -5.99873e-38 0)
(-8.25254e-37 -5.14265e-37 0)
(-5.86418e-36 -4.01142e-36 0)
(-3.63601e-35 -2.99546e-35 0)
(-2.0869e-34 -1.99199e-34 0)
(-8.74725e-34 -1.24777e-33 0)
(-3.16637e-33 -5.84434e-33 0)
(4.97424e-36 -2.27337e-32 0)
(3.25998e-33 -4.50854e-33 0)
(-1.99235e-35 -1.34503e-34 0)
(3.89562e-35 -6.39939e-35 0)
(1.49871e-35 -4.63879e-35 0)
(7.81586e-36 -1.16114e-35 0)
(1.8947e-36 -2.53192e-36 0)
(4.21112e-37 -4.24551e-37 0)
(7.40607e-38 -6.88889e-38 0)
(1.20823e-38 -1.31463e-38 0)
(1.81925e-39 -5.71725e-39 0)
(-3.99321e-40 -4.77572e-39 0)
(-9.73955e-40 2.70203e-39 0)
(5.52162e-40 6.64315e-39 0)
(1.20164e-39 -1.39291e-39 0)
(-2.07844e-40 -4.15137e-39 0)
(-6.37622e-40 1.6547e-39 0)
(1.45302e-40 2.8082e-39 0)
(3.16183e-40 8.54088e-40 0)
(9.95138e-41 2.15537e-40 0)
(2.5927e-41 4.07327e-41 0)
(5.01911e-42 6.94173e-42 0)
(8.73183e-43 1.03091e-42 0)
(1.31886e-43 1.42151e-43 0)
(1.84752e-44 1.79477e-44 0)
(2.64684e-45 1.90076e-45 0)
(2.6723e-45 -1.92604e-45 0)
(1.8726e-44 -1.81618e-44 0)
(1.33952e-43 -1.44049e-43 0)
(8.89167e-43 -1.0467e-42 0)
(5.13156e-42 -7.06553e-42 0)
(2.66587e-41 -4.16185e-41 0)
(1.03568e-40 -2.21426e-40 0)
(3.36231e-40 -8.87764e-40 0)
(2.10891e-40 -2.98281e-39 0)
(-4.94097e-40 -2.29913e-39 0)
(-1.03893e-39 2.07638e-39 0)
(-5.408e-39 9.96646e-40 0)
(-4.87841e-38 -1.78025e-38 0)
(-4.09567e-37 -1.66829e-37 0)
(-3.15555e-36 -1.44117e-36 0)
(-2.30717e-35 -1.16883e-35 0)
(-1.48028e-34 -9.24429e-35 0)
(-8.87024e-34 -6.66444e-34 0)
(-3.90948e-33 -4.58139e-33 0)
(-1.50525e-32 -2.39383e-32 0)
(-1.55951e-34 -9.81666e-32 0)
(1.4712e-32 -1.96548e-32 0)
(-9.08366e-36 -6.2551e-34 0)
(2.9882e-34 -2.9317e-34 0)
(9.75889e-35 -2.15657e-34 0)
(4.12902e-35 -5.15771e-35 0)
(9.28416e-36 -1.08295e-35 0)
(1.9536e-36 -1.76728e-36 0)
(3.28486e-37 -2.68789e-37 0)
(5.15757e-38 -3.68767e-38 0)
(7.19434e-39 -5.3431e-39 0)
(8.31618e-40 -1.26463e-39 0)
(-5.92618e-41 3.55816e-40 0)
(8.81927e-41 1.01434e-39 0)
(1.83206e-40 -2.1188e-40 0)
(-4.20608e-41 -6.36144e-40 0)
(-1.08286e-40 2.53299e-40 0)
(1.65859e-41 4.32992e-40 0)
(4.55219e-41 1.34185e-40 0)
(1.47182e-41 3.45349e-41 0)
(3.91593e-42 6.64023e-42 0)
(7.70568e-43 1.14844e-42 0)
(1.35886e-43 1.72726e-43 0)
(2.07629e-44 2.40671e-44 0)
(2.93682e-45 3.06603e-45 0)
(4.24588e-46 3.26876e-46 0)
(4.28681e-46 -3.31285e-46 0)
(2.97674e-45 -3.10317e-45 0)
(2.10869e-44 -2.43948e-44 0)
(1.38339e-43 -1.75435e-43 0)
(7.87218e-43 -1.16955e-42 0)
(4.01752e-42 -6.79061e-42 0)
(1.5202e-41 -3.55336e-41 0)
(4.7033e-41 -1.39962e-40 0)
(1.02717e-41 -4.64247e-40 0)
(-2.50944e-40 -3.90318e-40 0)
(-1.75682e-39 -6.01935e-41 0)
(-1.57241e-38 -3.61809e-39 0)
(-1.39863e-37 -3.90691e-38 0)
(-1.19154e-36 -3.60065e-37 0)
(-9.4135e-36 -3.24476e-36 0)
(-7.10221e-35 -2.809e-35 0)
(-4.73552e-34 -2.45598e-34 0)
(-2.97248e-33 -2.01648e-33 0)
(-1.38819e-32 -1.60261e-32 0)
(-5.70411e-32 -9.71809e-32 0)
(-1.03254e-33 -4.49265e-31 0)
(5.02013e-32 -8.51569e-32 0)
(-1.25086e-35 -4.20909e-36 0)
(-1.00893e-34 -2.63372e-35 0)
(-4.8367e-34 -1.63546e-34 0)
(-4.26869e-33 -1.18522e-34 0)
(-3.87467e-33 3.13765e-34 0)
(3.87467e-33 3.13765e-34 0)
(4.2687e-33 -1.18522e-34 0)
(4.83686e-34 -1.63541e-34 0)
(1.01097e-34 -2.63403e-35 0)
(1.31952e-35 -4.6508e-36 0)
(1.97808e-36 -6.17769e-37 0)
(2.41741e-37 -8.3511e-38 0)
(-4.19797e-42 -1.9423e-38 0)
(-2.41783e-37 -8.35234e-38 0)
(-1.97848e-36 -6.1789e-37 0)
(-1.31987e-35 -4.65193e-36 0)
(-1.01128e-34 -2.63502e-35 0)
(-4.83935e-34 -1.63625e-34 0)
(-4.27071e-33 -1.19149e-34 0)
(-3.88812e-33 3.09031e-34 0)
(3.77157e-33 2.86797e-34 0)
(3.77157e-33 -2.86797e-34 0)
(-3.88812e-33 -3.09031e-34 0)
(-4.27071e-33 1.19149e-34 0)
(-4.83935e-34 1.63625e-34 0)
(-1.01129e-34 2.635e-35 0)
(-1.32023e-35 4.65079e-36 0)
(-2.0102e-36 6.07951e-37 0)
(-4.93737e-37 -9.98445e-40 0)
(-2.03724e-36 -6.16637e-37 0)
(-1.34162e-35 -4.72336e-36 0)
(-1.02858e-34 -2.68842e-35 0)
(-4.9512e-34 -1.67648e-34 0)
(-4.35836e-33 -1.40755e-34 0)
(-4.2687e-33 1.72457e-34 0)
(-3.23812e-39 3.3655e-34 0)
(4.26867e-33 1.72449e-34 0)
(4.35814e-33 -1.40818e-34 0)
(4.93032e-34 -1.67787e-34 0)
(9.30987e-35 -2.38182e-35 0)
(-5.79648e-36 1.89848e-36 0)
(-4.11167e-35 1.42318e-35 0)
(-1.86715e-34 8.81173e-35 0)
(-1.02134e-33 6.35387e-35 0)
(-8.70416e-34 -1.68609e-34 0)
(8.70416e-34 -1.68609e-34 0)
(1.02134e-33 6.35385e-35 0)
(1.86726e-34 8.81166e-35 0)
(4.12345e-35 1.42537e-35 0)
(6.3113e-36 2.36171e-36 0)
(9.92933e-37 2.96754e-37 0)
(1.30333e-37 3.74158e-38 0)
(-2.61545e-42 8.21404e-39 0)
(-1.30358e-37 3.74203e-38 0)
(-9.93171e-37 2.968e-37 0)
(-6.31337e-36 2.36216e-36 0)
(-4.1252e-35 1.42579e-35 0)
(-1.8686e-34 8.8154e-35 0)
(-1.02235e-33 6.38394e-35 0)
(-8.76862e-34 -1.6621e-34 0)
(8.28171e-34 -1.54054e-34 0)
(8.28171e-34 1.54054e-34 0)
(-8.76862e-34 1.6621e-34 0)
(-1.02235e-33 -6.38394e-35 0)
(-1.8686e-34 -8.8154e-35 0)
(-4.12523e-35 -1.42578e-35 0)
(-6.31547e-36 -2.3617e-36 0)
(-1.01092e-36 -2.92606e-37 0)
(-2.66627e-37 4.01678e-40 0)
(-1.02594e-36 2.96302e-37 0)
(-6.43029e-36 2.39452e-36 0)
(-4.2111e-35 1.45171e-35 0)
(-1.92161e-34 9.02149e-35 0)
(-1.05714e-33 7.5694e-35 0)
(-1.02134e-33 -9.26476e-35 0)
(-2.00163e-39 -1.81031e-34 0)
(1.02132e-33 -9.26448e-35 0)
(1.05701e-33 7.57082e-35 0)
(1.91063e-34 9.00659e-35 0)
(3.66975e-35 1.06369e-35 0)
(-1.91933e-36 9.51172e-37 0)
(-1.15429e-35 6.60894e-36 0)
(-4.1629e-35 3.1911e-35 0)
(-1.77446e-34 2.06206e-35 0)
(-1.45674e-34 -6.0534e-35 0)
(1.45674e-34 -6.0534e-35 0)
(1.77446e-34 2.06205e-35 0)
(4.16311e-35 3.19103e-35 0)
(1.15699e-35 6.61853e-36 0)
(2.01707e-36 1.19418e-36 0)
(3.50383e-37 1.6581e-37 0)
(4.91592e-38 2.21307e-38 0)
(-1.16817e-42 5.14876e-39 0)
(-4.91704e-38 2.21338e-38 0)
(-3.50484e-37 1.65841e-37 0)
(-2.01793e-36 1.19448e-36 0)
(-1.15769e-35 6.62114e-36 0)
(-4.1682e-35 3.19324e-35 0)
(-1.77803e-34 2.07889e-35 0)
(-1.47742e-34 -5.93177e-35 0)
(1.33747e-34 -5.37471e-35 0)
(1.33747e-34 5.37471e-35 0)
(-1.47742e-34 5.93177e-35 0)
(-1.77803e-34 -2.07889e-35 0)
(-4.1682e-35 -3.19324e-35 0)
(-1.1577e-35 -6.62111e-36 0)
(-2.01879e-36 -1.19418e-36 0)
(-3.57558e-37 -1.63208e-37 0)
(-1.00783e-37 2.6107e-40 0)
(-3.63492e-37 1.65514e-37 0)
(-2.06181e-36 1.21341e-36 0)
(-1.18766e-35 6.76475e-36 0)
(-4.33416e-35 3.29582e-35 0)
(-1.87305e-34 2.61911e-35 0)
(-1.77446e-34 -3.41943e-35 0)
(-5.42684e-40 -6.62529e-35 0)
(1.77441e-34 -3.41923e-35 0)
(1.87276e-34 2.62015e-35 0)
(4.31109e-35 3.29007e-35 0)
(1.07072e-35 4.94144e-36 0)
(-4.58266e-37 3.47624e-37 0)
(-2.36903e-36 2.25507e-36 0)
(-6.7729e-36 9.99728e-36 0)
(-2.38364e-35 6.18587e-36 0)
(-1.90455e-35 -1.89586e-35 0)
(1.90455e-35 -1.89586e-35 0)
(2.38364e-35 6.18585e-36 0)
(6.77304e-36 9.9972e-36 0)
(2.37261e-36 2.25993e-36 0)
(4.67062e-37 4.40276e-37 0)
(8.82548e-38 6.50666e-38 0)
(1.31215e-38 9.16854e-39 0)
(-3.58619e-43 2.22543e-39 0)
(-1.31249e-38 9.17005e-39 0)
(-8.82848e-38 6.50811e-38 0)
(-4.6731e-37 4.40408e-37 0)
(-2.37456e-36 2.26106e-36 0)
(-6.78665e-36 1.00064e-35 0)
(-2.39266e-35 6.25203e-36 0)
(-1.95262e-35 -1.85092e-35 0)
(1.65827e-35 -1.66325e-35 0)
(1.65827e-35 1.66325e-35 0)
(-1.95262e-35 1.85092e-35 0)
(-2.39266e-35 -6.25203e-36 0)
(-6.78666e-36 -1.00064e-35 0)
(-2.37459e-36 -2.26104e-36 0)
(-4.6756e-37 -4.40275e-37 0)
(-9.02598e-38 -6.39412e-38 0)
(-2.6953e-38 1.16527e-40 0)
(-9.19045e-38 6.49341e-38 0)
(-4.78975e-37 4.48186e-37 0)
(-2.44926e-36 2.31693e-36 0)
(-7.16349e-36 1.03805e-35 0)
(-2.58186e-35 8.06251e-36 0)
(-2.38364e-35 -1.08381e-35 0)
(-9.60631e-41 -2.08932e-35 0)
(2.38357e-35 -1.08375e-35 0)
(2.58151e-35 8.06456e-36 0)
(7.13715e-36 1.0351e-35 0)
(2.28846e-36 1.66944e-36 0)
(-9.74542e-38 8.92669e-38 0)
(-4.32688e-37 5.53759e-37 0)
(-8.99226e-37 2.2878e-36 0)
(-2.41679e-36 1.35913e-36 0)
(-1.87181e-36 -4.33744e-36 0)
(1.87181e-36 -4.33744e-36 0)
(2.41679e-36 1.35913e-36 0)
(8.99148e-37 2.28783e-36 0)
(4.32646e-37 5.5537e-37 0)
(9.52961e-38 1.14407e-37 0)
(1.95096e-38 1.7772e-38 0)
(3.04742e-39 2.60656e-39 0)
(-9.41324e-44 6.53624e-40 0)
(-3.04829e-39 2.60703e-39 0)
(-1.95172e-38 1.77765e-38 0)
(-9.53577e-38 1.14447e-37 0)
(-4.33117e-37 5.55701e-37 0)
(-9.02318e-37 2.29043e-36 0)
(-2.43678e-36 1.37723e-36 0)
(-1.97027e-36 -4.22043e-36 0)
(1.41917e-36 -3.76397e-36 0)
(1.41917e-36 3.76397e-36 0)
(-1.97027e-36 4.22043e-36 0)
(-2.43678e-36 -1.37723e-36 0)
(-9.02319e-37 -2.29043e-36 0)
(-4.33125e-37 -5.55696e-37 0)
(-9.54201e-38 -1.14407e-37 0)
(-1.99948e-38 -1.74413e-38 0)
(-6.2711e-39 3.50322e-41 0)
(-2.03899e-38 1.77321e-38 0)
(-9.80565e-38 1.16643e-37 0)
(-4.49472e-37 5.70857e-37 0)
(-9.77628e-37 2.38674e-36 0)
(-2.77096e-36 1.81559e-36 0)
(-2.41679e-36 -2.50607e-36 0)
(-8.54293e-42 -4.80966e-36 0)
(2.41675e-36 -2.50598e-36 0)
(2.77115e-36 1.81568e-36 0)
(9.7891e-37 2.37693e-36 0)
(4.42822e-37 4.04258e-37 0)
(-1.8499e-38 2.00389e-38 0)
(-7.20898e-38 1.19808e-37 0)
(-1.03044e-37 4.74405e-37 0)
(-1.61956e-37 2.74642e-37 0)
(-1.16696e-37 -9.00463e-37 0)
(1.16697e-37 -9.00462e-37 0)
(1.61956e-37 2.74649e-37 0)
(1.03024e-37 4.74455e-37 0)
(7.19524e-38 1.20412e-37 0)
(1.74559e-38 2.60195e-38 0)
(3.81365e-39 4.20537e-39 0)
(6.20277e-40 6.38496e-40 0)
(-2.12345e-44 1.64467e-40 0)
(-6.20473e-40 6.38621e-40 0)
(-3.81533e-39 4.20653e-39 0)
(-1.74691e-38 2.60298e-38 0)
(-7.20515e-38 1.20495e-37 0)
(-1.03671e-37 4.75094e-37 0)
(-1.65871e-37 2.78937e-37 0)
(-1.34799e-37 -8.73804e-37 0)
(4.08297e-38 -7.75762e-37 0)
(4.08297e-38 7.75762e-37 0)
(-1.34799e-37 8.73804e-37 0)
(-1.65871e-37 -2.78937e-37 0)
(-1.03671e-37 -4.75094e-37 0)
(-7.20532e-38 -1.20494e-37 0)
(-1.74825e-38 -2.60194e-38 0)
(-3.91582e-39 -4.12211e-39 0)
(-1.27847e-39 8.99274e-42 0)
(-3.99847e-39 4.19508e-39 0)
(-1.80167e-38 2.65644e-38 0)
(-7.52218e-38 1.2406e-37 0)
(-1.17213e-37 4.96826e-37 0)
(-2.19721e-37 3.72691e-37 0)
(-1.61957e-37 -5.24048e-37 0)
(8.21661e-43 -1.00222e-36 0)
(1.61972e-37 -5.24043e-37 0)
(2.19919e-37 3.7259e-37 0)
(1.18542e-37 4.94029e-37 0)
(7.80626e-38 8.63009e-38 0)
(-2.52549e-39 3.21016e-39 0)
(-1.14014e-38 2.1869e-38 0)
(-1.07251e-38 8.74949e-38 0)
(1.43374e-39 4.95833e-38 0)
(3.15572e-39 -1.6666e-37 0)
(-3.15137e-39 -1.66656e-37 0)
(-1.41116e-39 4.96185e-38 0)
(1.08424e-38 8.77167e-38 0)
(1.15222e-38 2.3108e-38 0)
(3.01044e-39 5.19137e-39 0)
(6.91949e-40 8.67282e-40 0)
(1.1615e-40 1.35477e-40 0)
(-4.33011e-45 3.56891e-41 0)
(-1.16189e-40 1.35505e-40 0)
(-6.92282e-40 8.67545e-40 0)
(-3.01304e-39 5.19364e-39 0)
(-1.15412e-38 2.31261e-38 0)
(-1.09637e-38 8.78522e-38 0)
(6.99896e-40 5.05037e-38 0)
(2.0086e-41 -1.61328e-37 0)
(-1.53854e-38 -1.42662e-37 0)
(-1.53854e-38 1.42662e-37 0)
(2.00856e-41 1.61328e-37 0)
(6.99892e-40 -5.05037e-38 0)
(-1.09637e-38 -8.78522e-38 0)
(-1.15416e-38 -2.31258e-38 0)
(-3.01568e-39 -5.19134e-39 0)
(-7.11617e-40 -8.49208e-40 0)
(-2.39728e-40 1.98402e-42 0)
(-7.2744e-40 8.65007e-40 0)
(-3.11531e-39 5.30649e-39 0)
(-1.21125e-38 2.38573e-38 0)
(-1.32629e-38 9.21584e-38 0)
(-7.6905e-39 6.82848e-38 0)
(1.41126e-39 -9.76047e-38 0)
(6.07909e-43 -1.86087e-37 0)
(-1.40468e-39 -9.76068e-38 0)
(7.75147e-39 6.8242e-38 0)
(1.36565e-38 9.14989e-38 0)
(1.31915e-38 1.63235e-38 0)
(1.24475e-38 -8.92804e-40 0)
(9.19459e-40 -3.70057e-39 0)
(-6.28066e-41 1.38158e-38 0)
(2.97833e-39 8.24448e-39 0)
(2.555e-39 -2.8952e-38 0)
(-2.52582e-39 -2.89303e-38 0)
(-2.8068e-39 8.45121e-39 0)
(1.10732e-39 1.52069e-38 0)
(1.77579e-39 4.11989e-39 0)
(4.89591e-40 9.55664e-40 0)
(1.16851e-40 1.6397e-40 0)
(2.01063e-41 2.62236e-41 0)
(-8.04539e-46 7.03685e-42 0)
(-2.01135e-41 2.62295e-41 0)
(-1.16911e-40 1.64023e-40 0)
(-4.90058e-40 9.5612e-40 0)
(-1.77915e-39 4.12347e-39 0)
(-1.12831e-39 1.52331e-38 0)
(2.68689e-39 8.61897e-39 0)
(2.01839e-39 -2.79457e-38 0)
(-4.42508e-39 -2.46403e-38 0)
(-4.42508e-39 2.46403e-38 0)
(2.01839e-39 2.79457e-38 0)
(2.68689e-39 -8.61897e-39 0)
(-1.12832e-39 -1.52331e-38 0)
(-1.77921e-39 -4.12341e-39 0)
(-4.90531e-40 -9.55659e-40 0)
(-1.20332e-40 -1.60405e-40 0)
(-4.15469e-41 3.96645e-43 0)
(-1.2312e-40 1.63514e-40 0)
(-5.07723e-40 9.77867e-40 0)
(-1.87509e-39 4.2611e-39 0)
(-1.49764e-39 1.60213e-38 0)
(1.42174e-39 1.1757e-38 0)
(2.80719e-39 -1.70262e-38 0)
(1.74414e-43 -3.23776e-38 0)
(-2.80552e-39 -1.70272e-38 0)
(-1.40807e-39 1.17451e-38 0)
(1.58275e-39 1.58827e-38 0)
(2.12311e-39 2.87172e-39 0)
(2.05728e-37 -6.08581e-38 0)
(2.96677e-38 -4.61787e-38 0)
(8.16821e-39 -5.11985e-39 0)
(1.81101e-39 3.59101e-40 0)
(7.06345e-40 -4.80653e-39 0)
(-5.28695e-40 -4.70967e-39 0)
(-6.33937e-40 1.34896e-39 0)
(1.16733e-40 2.46726e-39 0)
(2.65782e-40 6.8451e-40 0)
(7.60272e-41 1.62962e-40 0)
(1.86577e-41 2.85839e-41 0)
(3.27294e-42 4.66081e-42 0)
(-1.38009e-46 1.27014e-42 0)
(-3.27417e-42 4.6619e-42 0)
(-1.86678e-41 2.85938e-41 0)
(-7.6104e-41 1.63046e-40 0)
(-2.66321e-40 6.85163e-40 0)
(-1.19966e-40 2.47202e-39 0)
(6.1668e-40 1.37922e-39 0)
(4.67454e-40 -4.53109e-39 0)
(-8.31898e-40 -3.98498e-39 0)
(-8.31898e-40 3.98498e-39 0)
(4.67454e-40 4.53109e-39 0)
(6.16679e-40 -1.37922e-39 0)
(-1.19967e-40 -2.47202e-39 0)
(-2.66332e-40 -6.85153e-40 0)
(-7.61835e-41 -1.62961e-40 0)
(-1.92347e-41 -2.79403e-41 0)
(-6.76969e-42 7.24282e-44 0)
(-1.9695e-41 2.85005e-41 0)
(-7.89746e-41 1.66896e-40 0)
(-2.81571e-40 7.09066e-40 0)
(-1.76768e-40 2.60576e-39 0)
(4.30372e-40 1.89611e-39 0)
(6.35909e-40 -2.77748e-39 0)
(3.84237e-44 -5.26998e-39 0)
(-6.35566e-40 -2.77773e-39 0)
(-4.27753e-40 1.89347e-39 0)
(1.92561e-40 2.57959e-39 0)
(3.28718e-40 4.71572e-40 0)
(2.67685e-36 3.48487e-37 0)
(3.74029e-37 -2.39806e-37 0)
(5.82849e-38 -3.6866e-38 0)
(7.00184e-39 -3.96952e-39 0)
(8.88398e-40 -1.14561e-39 0)
(-7.60725e-42 -7.64782e-40 0)
(-9.89925e-41 2.01947e-40 0)
(1.38137e-41 3.80222e-40 0)
(3.84077e-41 1.0758e-40 0)
(1.1264e-41 2.61366e-41 0)
(2.82199e-42 4.66474e-42 0)
(5.02791e-43 7.7218e-43 0)
(-1.91309e-47 2.13004e-43 0)
(-5.02948e-43 7.7238e-43 0)
(-2.8231e-42 4.66659e-42 0)
(-1.12701e-41 2.61528e-41 0)
(-3.84229e-41 1.07714e-40 0)
(-1.35513e-41 3.81302e-40 0)
(1.04438e-40 2.10275e-40 0)
(7.91256e-41 -6.9841e-40 0)
(-1.32157e-40 -6.12944e-40 0)
(-1.32157e-40 6.12944e-40 0)
(7.91256e-41 6.9841e-40 0)
(1.04438e-40 -2.10275e-40 0)
(-1.35515e-41 -3.81302e-40 0)
(-3.84246e-41 -1.07712e-40 0)
(-1.12827e-41 -2.61385e-41 0)
(-2.91147e-42 -4.55693e-42 0)
(-1.04076e-42 1.22567e-44 0)
(-2.98301e-42 4.65077e-42 0)
(-1.17105e-41 2.67888e-41 0)
(-4.07204e-41 1.11603e-40 0)
(-2.18995e-41 4.02669e-40 0)
(7.78869e-41 2.90969e-40 0)
(1.07348e-40 -4.30257e-40 0)
(7.25172e-45 -8.14886e-40 0)
(-1.07287e-40 -4.30311e-40 0)
(-7.7439e-41 2.90458e-40 0)
(2.45215e-41 3.98116e-40 0)
(4.85988e-41 7.34303e-41 0)
(7.75395e-34 -3.30823e-33 0)
(2.47819e-33 -1.31055e-33 0)
(7.00896e-34 -9.22357e-34 0)
(2.43917e-34 -2.09144e-34 0)
(4.98234e-35 -4.17615e-35 0)
(9.82695e-36 -6.55122e-36 0)
(1.57794e-36 -9.62606e-37 0)
(2.39781e-37 -1.26763e-37 0)
(3.25597e-38 -1.59572e-38 0)
(4.18178e-39 -1.93114e-39 0)
(4.82097e-40 -1.64066e-40 0)
(6.44571e-41 8.46249e-41 0)
(2.49429e-41 -2.40358e-41 0)
(-4.28024e-42 -6.64616e-41 0)
(-1.17576e-41 2.63909e-41 0)
(1.42366e-42 4.53644e-41 0)
(4.58716e-42 1.43162e-41 0)
(1.51133e-42 3.77835e-42 0)
(4.08215e-43 7.41782e-43 0)
(8.13094e-44 1.30893e-43 0)
(1.44833e-44 2.00264e-44 0)
(2.2322e-45 2.83373e-45 0)
(3.18005e-46 3.65855e-46 0)
(4.62787e-47 3.94194e-47 0)
(4.6638e-47 -3.99549e-47 0)
(3.21083e-46 -3.7029e-46 0)
(2.25083e-45 -2.87203e-45 0)
(1.45398e-44 -2.03337e-44 0)
(8.0551e-44 -1.33184e-43 0)
(3.88865e-43 -7.56887e-43 0)
(1.21636e-42 -3.86521e-42 0)
(8.98011e-43 -1.46593e-41 0)
(-4.04516e-41 -4.55069e-41 0)
(-4.53503e-40 -6.79743e-42 0)
(-4.41753e-39 3.37125e-40 0)
(-4.21835e-38 2.90712e-39 0)
(-3.82783e-37 2.54289e-38 0)
(-3.34913e-36 1.97651e-37 0)
(-2.72672e-35 1.13821e-36 0)
(-2.14345e-34 -6.22504e-37 0)
(-1.49495e-33 -1.48925e-34 0)
(-1.00719e-32 -2.86471e-33 0)
(-5.06584e-32 -3.5177e-32 0)
(-2.47749e-31 -3.01608e-31 0)
(1.71339e-33 -1.49427e-30 0)
(2.47714e-31 -3.0104e-31 0)
(1.51112e-32 -1.64661e-32 0)
(2.74895e-32 -6.94842e-33 0)
(6.14049e-33 -5.00719e-33 0)
(1.58729e-33 -9.87842e-34 0)
(2.82751e-34 -1.86835e-34 0)
(5.01249e-35 -2.77533e-35 0)
(7.53241e-36 -3.95605e-36 0)
(1.08892e-36 -5.05974e-37 0)
(1.42705e-37 -6.22086e-38 0)
(1.78841e-38 -7.14613e-39 0)
(2.09114e-39 -7.83957e-40 0)
(2.3517e-40 -7.25903e-41 0)
(2.64914e-41 -1.03633e-41 0)
(2.12607e-42 -7.00339e-42 0)
(-7.48268e-43 2.39241e-42 0)
(1.31131e-43 4.25499e-42 0)
(3.78947e-43 1.36046e-42 0)
(1.26303e-43 3.6278e-43 0)
(3.46622e-44 7.19074e-44 0)
(6.99792e-45 1.27822e-44 0)
(1.2624e-45 1.96845e-45 0)
(1.96709e-46 2.79919e-46 0)
(2.83e-47 3.62941e-47 0)
(4.16229e-48 3.9237e-48 0)
(4.25977e-48 -3.94985e-48 0)
(2.94954e-47 -3.63911e-47 0)
(2.10086e-46 -2.79176e-46 0)
(1.41272e-45 -1.94047e-45 0)
(8.682e-45 -1.22777e-44 0)
(5.3454e-44 -6.45216e-44 0)
(3.32653e-43 -2.66659e-43 0)
(2.60384e-42 -1.99529e-43 0)
(2.34067e-41 8.93805e-42 0)
(2.35467e-40 1.40159e-40 0)
(2.3011e-39 1.47733e-39 0)
(2.15582e-38 1.44004e-38 0)
(1.91447e-37 1.32999e-37 0)
(1.62798e-36 1.10635e-36 0)
(1.28978e-35 7.60843e-36 0)
(9.73822e-35 2.35386e-35 0)
(6.55933e-34 -4.23525e-34 0)
(4.14795e-33 -1.14965e-32 0)
(2.00241e-32 -1.65453e-31 0)
(8.5495e-32 -1.73777e-30 0)
(2.72039e-32 -1.29405e-29 0)
(-5.23893e-32 -1.74246e-30 0)
(1.7567e-31 -1.12548e-31 0)
(2.20293e-31 -1.71597e-32 0)
(3.43955e-32 -1.81397e-33 0)
(8.32535e-33 -1.45291e-34 0)
(1.33652e-33 -8.32063e-36 0)
(2.278e-34 -2.49434e-37 0)
(3.27032e-35 2.06292e-38 0)
(4.60916e-36 4.91905e-39 0)
(5.88742e-37 6.66051e-40 0)
(7.25099e-38 7.43307e-41 0)
(8.3446e-39 8.14879e-42 0)
(9.23638e-40 1.61302e-42 0)
(9.71562e-41 -9.79287e-44 0)
(9.78366e-42 -5.18201e-43 0)
(8.6769e-43 2.09562e-43 0)
(9.7843e-44 3.6256e-43 0)
(3.9643e-44 1.17213e-43 0)
(1.13899e-44 3.16681e-44 0)
(3.0223e-45 6.35089e-45 0)
(6.08114e-46 1.14099e-45 0)
(1.09964e-46 1.77364e-46 0)
(1.7209e-47 2.54285e-47 0)
(2.48771e-48 3.32078e-48 0)
(3.88229e-49 3.60692e-49 0)
(6.58805e-49 -3.67785e-49 0)
(6.31516e-48 -3.38839e-48 0)
(6.61071e-47 -2.61308e-47 0)
(7.18475e-46 -1.84669e-46 0)
(7.96898e-45 -1.21806e-45 0)
(8.95463e-44 -7.17165e-45 0)
(9.96376e-43 -4.05363e-44 0)
(1.09038e-41 -2.12841e-43 0)
(1.15619e-40 -1.38966e-42 0)
(1.18741e-39 -1.09747e-41 0)
(1.1686e-38 -1.09253e-40 0)
(1.10766e-37 -1.06044e-39 0)
(9.96342e-37 -9.5242e-39 0)
(8.61377e-36 -7.19114e-38 0)
(6.94427e-35 -3.26594e-37 0)
(5.37544e-34 3.01065e-36 0)
(3.71442e-33 1.12224e-34 0)
(2.45463e-32 2.00906e-33 0)
(1.23767e-31 2.56962e-32 0)
(5.90791e-31 2.49313e-31 0)
(2.28598e-31 1.71762e-30 0)
(-3.26673e-31 2.48807e-31 0)
(2.24401e-32 -1.09443e-31 0)
(2.36639e-32 -1.32363e-32 0)
(5.36511e-33 2.78102e-33 0)
(1.41488e-33 8.01309e-34 0)
(2.56824e-34 1.74904e-34 0)
(4.6261e-35 2.7208e-35 0)
(7.03438e-36 3.95083e-36 0)
(1.02643e-36 5.08478e-37 0)
(1.3548e-37 6.26266e-38 0)
(1.70776e-38 7.18966e-39 0)
(2.00755e-39 7.93453e-40 0)
(2.25899e-40 8.31881e-41 0)
(2.40999e-41 8.37617e-42 0)
(2.46546e-42 7.67208e-43 0)
(2.35297e-43 9.35748e-44 0)
(2.35603e-44 3.76662e-44 0)
(4.59693e-45 1.06541e-44 0)
(1.04205e-45 2.78765e-45 0)