/*--------------------------------*- C++ -*----------------------------------*\
| =========                 |                                                 |
| \\      /  F ield         | OpenFOAM: The Open Source CFD Toolbox           |
|  \\    /   O peration     | Version:  2.4.0                                 |
|   \\  /    A nd           | Web:      www.OpenFOAM.org                      |
|    \\/     M anipulation  |                                                 |
\*---------------------------------------------------------------------------*/
FoamFile
{
    version     2.0;
    format      ascii;
    class       surfaceScalarField;
    location    "0.65";
    object      phi;
}
// * * * * * * * * * * * * * * * * * * * * * * * * * * * * * * * * * * * * * //

dimensions      [0 3 -1 0 0 0 0];

internalField   nonuniform List<scalar> 
15214
(
3.05842e-39
6.6526e-41
1.67435e-38
4.00019e-40
2.37607e-38
2.95288e-39
5.36407e-37
2.26404e-39
5.16082e-41
-5.68957e-39
-5.36003e-37
-5.6821e-39
-2.03334e-38
2.33706e-39
3.12231e-39
3.41909e-39
3.78404e-38
3.76095e-39
5.63284e-37
5.35626e-39
5.56575e-37
-2.94526e-39
-4.92426e-37
-7.95359e-39
2.02199e-38
2.26403e-39
5.39875e-37
5.21676e-39
2.41635e-38
-2.33797e-39
1.67992e-38
-2.96137e-39
3.07574e-39
-4.00802e-40
3.51723e-40
-6.55782e-41
4.66327e-41
-7.55884e-42
4.98303e-42
-9.11336e-43
5.506e-43
-9.33886e-44
5.37496e-44
-9.52761e-45
5.25217e-45
-8.80221e-46
9.33671e-46
-7.28696e-47
5.28919e-45
7.34172e-47
5.41737e-44
8.86386e-46
5.55339e-43
9.60043e-45
5.03148e-42
9.41886e-44
4.71286e-41
9.19969e-43
3.56145e-40
7.64254e-42
3.11728e-39
6.63944e-41
1.71032e-38
4.0743e-40
2.68776e-38
3.01921e-39
5.53505e-37
2.67136e-39
2.68776e-38
-2.67136e-39
1.71032e-38
-3.01921e-39
3.11728e-39
-4.0743e-40
3.56145e-40
-6.63944e-41
4.71286e-41
-7.64258e-42
5.03133e-42
-9.20349e-43
5.54355e-43
-9.7361e-44
4.96446e-44
-3.15762e-44
-1.47847e-44
-1.48198e-43
-1.50353e-44
-6.54115e-43
2.08532e-44
-3.03118e-42
-4.4727e-43
8.54673e-40
-7.30174e-41
4.57579e-39
-5.81706e-40
2.91192e-38
-4.09692e-39
4.7476e-38
-3.08251e-39
1.69731e-41
7.85954e-39
-4.73469e-38
7.84991e-39
-2.8144e-38
-3.18046e-39
8.78535e-40
-4.76862e-39
3.29638e-38
-5.27245e-39
7.74717e-38
-7.36666e-39
5.30263e-38
4.08714e-39
-1.27893e-38
1.0942e-38
5.56725e-39
-3.0825e-39
4.84644e-38
-7.17928e-39
2.9248e-38
3.18156e-39
4.59433e-39
4.10783e-39
8.63308e-40
5.83525e-40
1.11958e-40
8.83376e-41
1.52495e-41
9.74761e-42
1.72656e-42
1.09784e-42
1.9494e-43
1.07362e-43
1.96606e-44
1.04484e-44
1.95407e-45
9.31801e-46
3.54713e-46
7.48549e-47
1.9683e-45
-7.53892e-47
1.98215e-44
-9.3797e-46
1.96699e-43
-1.05232e-44
1.74425e-42
-1.08212e-43
1.54244e-41
-1.10735e-42
1.13485e-40
-9.84436e-42
8.76791e-40
-8.93262e-41
4.69065e-39
-5.92153e-40
2.99959e-38
-4.18621e-39
5.21648e-38
-3.67454e-39
2.99959e-38
3.67454e-39
4.69065e-39
4.18621e-39
8.76791e-40
5.92153e-40
1.13485e-40
8.93262e-41
1.54242e-41
9.84403e-42
1.7427e-42
1.10443e-42
1.86434e-43
8.35837e-44
-2.77744e-44
-1.62226e-43
-2.10975e-43
-1.17416e-42
-1.65588e-43
-5.31229e-42
2.14636e-43
-2.49911e-41
-3.67857e-42
1.89602e-40
-2.29682e-41
7.78814e-40
-1.73315e-40
3.76972e-39
-1.019e-39
5.84468e-39
-7.18838e-40
4.79109e-42
1.94232e-39
-5.8116e-39
1.93906e-39
-3.55088e-39
-7.49952e-40
1.94887e-40
-1.22066e-39
4.39163e-39
-1.3696e-39
9.80865e-39
-1.79711e-39
6.84187e-39
1.01565e-39
-1.07292e-39
2.66115e-39
1.00198e-39
-7.18826e-40
6.06714e-39
-1.73774e-39
3.80267e-39
7.50337e-40
7.83844e-40
1.02268e-39
1.9062e-40
1.73889e-40
2.82295e-41
2.7865e-41
4.27432e-42
3.3045e-42
5.17518e-43
3.85466e-43
6.15874e-44
3.92534e-44
6.4506e-45
3.91446e-45
6.60942e-46
3.58357e-46
1.22767e-46
2.92609e-47
6.65951e-46
-2.94769e-47
6.50617e-45
-3.60815e-46
6.21807e-44
-3.9437e-45
5.23302e-43
-3.95796e-44
4.32934e-42
-3.89017e-43
2.86841e-41
-3.33978e-42
1.94363e-40
-2.82105e-41
8.07675e-40
-1.768e-40
3.96402e-39
-1.04716e-39
6.65178e-39
-8.95587e-40
3.96402e-39
8.95587e-40
8.07675e-40
1.04716e-39
1.94363e-40
1.768e-40
2.86839e-41
2.82103e-41
4.32753e-42
3.33741e-42
5.10493e-43
3.67904e-43
-2.38344e-44
-1.40975e-43
-3.97385e-43
-1.28049e-42
-1.83285e-42
-8.89264e-42
-1.43889e-42
-4.10622e-41
1.82056e-42
-1.96924e-40
-2.88605e-41
3.02815e-41
-7.17486e-42
9.8071e-41
-4.35486e-41
3.71716e-40
-2.37734e-40
5.49326e-40
-1.63494e-40
9.30179e-43
4.52503e-40
-5.43339e-40
4.5159e-40
-3.36328e-40
-1.7183e-40
3.11616e-41
-2.88279e-40
4.45518e-40
-3.24983e-40
9.52063e-40
-4.16869e-40
6.82643e-40
2.36537e-40
-4.33556e-41
6.15954e-40
1.34247e-40
-1.6344e-40
5.85395e-40
-4.00899e-40
3.77667e-40
1.71944e-40
9.9012e-41
2.3853e-40
3.03387e-41
4.33536e-41
5.04374e-42
7.46897e-42
8.24452e-43
9.34469e-43
1.05407e-43
1.14208e-43
1.30184e-44
1.20516e-44
1.40563e-45
1.23702e-45
1.47271e-46
1.15856e-46
2.78783e-47
9.62209e-48
1.48424e-46
-9.69518e-48
1.41823e-45
-1.16677e-46
1.31503e-44
-1.24664e-45
1.06664e-43
-1.21569e-44
8.36037e-43
-1.15328e-43
5.13584e-42
-9.45263e-43
3.10549e-41
-7.57089e-42
1.03205e-40
-4.41714e-41
4.0275e-40
-2.45041e-40
6.52411e-40
-2.07599e-40
4.0275e-40
2.07599e-40
1.03205e-40
2.45041e-40
3.10547e-41
4.41712e-41
5.13419e-42
7.56934e-42
8.22062e-43
9.29631e-43
6.75842e-45
-2.54879e-44
-6.67035e-43
-1.20957e-42
-3.24324e-42
-8.84271e-42
-1.49709e-41
-6.2538e-41
-1.18574e-41
-2.96782e-40
1.46006e-41
-1.4529e-39
-2.12532e-40
4.48309e-42
-9.45777e-42
1.10624e-41
-1.09133e-41
2.76792e-41
-4.29354e-41
3.70991e-41
-2.78179e-41
1.70122e-43
7.77999e-41
-3.60754e-41
7.76812e-41
-2.22514e-41
-2.90484e-41
4.6993e-42
-5.03035e-41
3.50855e-41
-5.6984e-41
6.93934e-41
-7.14138e-41
5.34214e-41
4.07123e-41
7.06989e-42
1.05295e-40
1.65077e-41
-2.74159e-41
4.25886e-41
-6.83147e-41
2.86374e-41
2.90708e-41
1.11473e-41
4.11169e-41
4.55303e-42
7.96035e-42
8.34976e-43
1.44472e-42
1.46561e-43
1.89214e-43
1.95824e-44
2.39349e-44
2.50084e-45
2.6015e-45
2.76843e-46
2.72949e-46
2.95829e-47
2.60573e-47
5.68755e-48
2.19328e-48
2.98206e-47
-2.21035e-48
2.7941e-46
-2.62469e-47
2.52728e-45
-2.75141e-46
1.98293e-44
-2.62514e-45
1.48779e-43
-2.41814e-44
8.51999e-43
-1.91538e-43
4.67946e-42
-1.466e-42
1.18307e-41
-8.12509e-42
3.23161e-41
-4.23672e-41
4.88882e-41
-3.55384e-41
3.23161e-41
3.55384e-41
1.18306e-41
4.23671e-41
4.67814e-42
8.1242e-42
8.40129e-43
1.4566e-42
4.69286e-44
9.60088e-44
-7.18437e-43
-8.48503e-43
-5.11245e-42
-7.71121e-42
-2.48932e-41
-5.71196e-41
-1.17294e-40
-4.15642e-40
-9.39146e-41
-2.04574e-39
1.12085e-40
-1.03115e-38
-1.49939e-39
-6.5019e-44
-6.00853e-41
1.81711e-42
-2.27121e-41
1.70895e-42
-2.13036e-41
1.46256e-42
-7.23037e-42
5.76278e-44
1.21001e-41
-1.14964e-42
1.25388e-41
-6.47755e-43
-4.68188e-42
6.43246e-43
-8.23892e-42
2.07462e-42
-9.35559e-42
3.33573e-42
-1.1571e-41
3.19545e-42
6.60554e-42
2.00407e-42
1.70315e-41
1.91653e-42
-4.38233e-42
2.06657e-42
-1.1022e-41
1.54e-42
4.67619e-42
1.17773e-42
6.67977e-42
6.2048e-43
1.34292e-42
1.22791e-43
2.5528e-43
2.26996e-44
3.46376e-44
3.14135e-45
4.51647e-45
4.11684e-46
5.02748e-46
4.65326e-47
5.37613e-47
5.05311e-48
5.21267e-48
9.84639e-49
4.43778e-49
5.09467e-48
-4.473e-49
4.69764e-47
-5.25143e-48
4.16192e-46
-5.42048e-47
3.18278e-45
-5.07471e-46
2.30638e-44
-4.56493e-45
1.2551e-43
-3.50856e-44
6.39945e-43
-2.59283e-43
1.27699e-42
-1.37294e-42
2.03138e-42
-6.8994e-42
2.57815e-42
-5.75477e-42
2.0313e-42
5.75473e-42
1.27613e-42
6.89899e-42
6.3132e-43
1.36827e-42
4.70543e-44
2.09526e-43
-6.59709e-43
-4.77294e-43
-5.02976e-42
-4.75477e-42
-3.55883e-41
-4.30077e-41
-1.77605e-40
-3.27993e-40
-8.56296e-40
-2.47361e-39
-6.94101e-40
-1.28033e-38
7.97344e-40
-6.64628e-38
-9.67245e-39
-4.16339e-42
-4.00268e-40
5.66861e-42
-1.44623e-40
2.51505e-42
-1.02319e-40
1.10237e-42
-1.98586e-41
2.45168e-43
-1.78843e-42
1.87523e-43
1.33008e-42
1.10406e-43
-7.32052e-43
8.68349e-44
-1.20536e-42
5.9111e-44
-1.36482e-42
-3.97251e-44
-1.66608e-42
1.02597e-43
9.52552e-43
3.44364e-43
2.44833e-42
2.27388e-43
-6.22782e-43
-1.84104e-44
-1.58078e-42
1.68441e-44
6.68487e-43
1.28149e-43
9.64423e-43
8.26763e-44
2.00641e-43
1.72372e-44
3.95355e-44
3.31237e-45
5.52649e-45
4.70612e-46
7.38178e-46
6.29634e-47
8.38462e-47
7.23496e-48
9.10749e-48
7.96118e-49
8.95017e-49
1.56818e-49
7.69363e-50
8.02789e-49
-7.75577e-50
7.30558e-48
-9.01801e-49
6.36727e-47
-9.18437e-48
4.77043e-46
-8.46562e-47
3.36795e-45
-7.46375e-46
1.76433e-44
-5.60106e-45
8.55035e-44
-4.0188e-44
1.41947e-43
-2.05411e-43
8.13335e-44
-9.98265e-43
2.03545e-44
-8.28122e-43
8.08535e-44
8.27952e-43
1.36814e-43
9.96369e-43
3.31819e-44
1.83445e-43
-4.64929e-43
-1.97079e-43
-4.27304e-42
-2.4818e-42
-3.21989e-41
-2.36082e-41
-2.33899e-40
-2.20016e-40
-1.20509e-39
-1.74725e-39
-6.00308e-39
-1.3901e-38
-4.93726e-39
-7.71473e-38
5.43684e-39
-4.21309e-37
-6.05094e-38
-1.5559e-41
-2.56862e-39
4.85982e-41
-8.89175e-40
1.95033e-41
-6.25902e-40
8.84537e-42
-1.15725e-40
1.70123e-42
-2.07341e-41
3.48865e-43
-2.5182e-42
6.84002e-44
-4.46139e-43
1.65609e-44
-2.04756e-43
-5.77748e-45
-1.9315e-43
-3.53388e-44
-2.2923e-43
-7.33877e-45
1.30885e-43
4.79859e-44
3.3585e-43
2.68374e-44
-8.47083e-44
-2.06187e-44
-2.16438e-43
-9.77635e-45
9.13653e-44
1.42362e-44
1.32687e-43
1.04368e-44
2.8289e-44
2.25755e-45
5.73914e-45
4.45989e-46
8.21e-46
6.47068e-47
1.11838e-46
8.79985e-48
1.29097e-47
1.02524e-48
1.42046e-48
1.14062e-49
1.41123e-49
2.26787e-50
1.2228e-50
1.15033e-49
-1.23282e-50
1.03545e-48
-1.4221e-49
8.90134e-48
-1.43268e-48
6.56168e-47
-1.30373e-47
4.53741e-46
-1.13115e-46
2.31322e-45
-8.32463e-46
1.08159e-44
-5.83781e-45
1.60287e-44
-2.89955e-44
-1.74538e-45
-1.37582e-43
-1.79337e-44
-1.13734e-43
-4.21999e-45
1.13134e-43
-1.07069e-44
1.30857e-43
-2.65396e-43
-4.98455e-44
-2.58646e-42
-8.58061e-43
-2.34146e-41
-9.23544e-42
-1.80886e-40
-9.00895e-41
-1.35501e-39
-8.73893e-40
-7.26526e-39
-7.38183e-39
-3.74512e-38
-6.33331e-38
-3.12907e-38
-3.92041e-37
3.25986e-38
-2.23566e-36
-3.23989e-37
9.78688e-41
-1.45923e-38
4.41844e-40
-5.18941e-39
1.52443e-40
-3.77282e-39
6.25937e-41
-6.66982e-40
1.1468e-41
-1.16228e-40
2.04547e-42
-1.47536e-41
2.78708e-43
-1.85431e-42
3.68306e-44
-2.1899e-43
2.3742e-45
-4.49842e-44
-5.6357e-45
-3.12527e-44
-2.01341e-45
1.65979e-44
6.10637e-45
4.2939e-44
3.1682e-45
-1.07495e-44
-3.55257e-45
-2.76357e-44
-1.87665e-45
1.16436e-44
1.62136e-45
1.70185e-44
1.27579e-45
3.70839e-45
2.82882e-46
7.6966e-46
5.70368e-47
1.12242e-46
8.40985e-48
1.55323e-47
1.15871e-48
1.81743e-48
1.36508e-49
2.02114e-49
1.5324e-50
2.02684e-50
3.07016e-51
1.76806e-51
1.54561e-50
-1.78272e-51
1.37887e-49
-2.04267e-50
1.17232e-48
-2.03881e-49
8.5307e-48
-1.83576e-48
5.80533e-47
-1.5714e-47
2.90066e-46
-1.13857e-46
1.32364e-45
-7.83383e-46
1.83832e-45
-3.8054e-45
-9.83813e-46
-1.7682e-44
-4.32285e-45
-1.46806e-44
-1.25452e-44
1.28825e-44
-1.24764e-43
-2.74486e-45
-1.33001e-42
-2.39607e-43
-1.2733e-41
-2.71621e-42
-1.18339e-40
-2.99037e-41
-9.43567e-40
-3.03268e-40
-7.37152e-39
-3.14344e-39
-4.14778e-38
-2.91926e-38
-2.26728e-37
-2.83655e-37
-1.92707e-37
-2.0389e-36
1.90529e-37
-1.29709e-35
-1.78754e-36
2.94377e-39
-8.20366e-38
4.15887e-39
-2.4983e-38
1.14793e-39
-1.74512e-38
3.95212e-40
-2.95012e-39
6.79959e-41
-4.87857e-40
1.15529e-41
-5.97662e-41
1.51123e-42
-7.21366e-42
1.90853e-43
-7.58225e-43
2.06907e-44
-8.05679e-44
1.41511e-45
-1.12538e-44
-8.32132e-47
1.65964e-45
7.38668e-46
5.85988e-45
3.63919e-46
-1.47576e-45
-4.62089e-46
-3.80124e-45
-2.5164e-46
1.59922e-45
1.81844e-46
2.34872e-45
1.48346e-46
5.20216e-46
3.35226e-47
1.09839e-46
6.86498e-48
1.62527e-47
1.02593e-48
2.27625e-48
1.42873e-49
2.69128e-49
1.69935e-50
3.01756e-50
1.92225e-51
3.04796e-51
3.87689e-52
2.67257e-52
1.93887e-51
-2.69496e-52
1.71652e-50
-3.07201e-51
1.44542e-49
-3.04431e-50
1.0404e-48
-2.71888e-49
6.98193e-48
-2.30345e-48
3.42806e-47
-1.64931e-47
1.52482e-46
-1.11869e-46
1.86174e-46
-5.34548e-46
-4.20822e-46
-2.44761e-45
-3.87011e-45
-2.08338e-45
-4.05031e-44
9.79274e-46
-4.45187e-43
-1.03331e-44
-4.77075e-42
-1.56292e-43
-4.66939e-41
-1.83675e-42
-4.46646e-40
-2.23145e-41
-3.69726e-39
-2.73033e-40
-3.01817e-38
-3.76916e-39
-1.80197e-37
-5.14325e-38
-1.03997e-36
-6.83854e-37
-8.9635e-37
-6.91543e-36
8.03078e-37
-4.64474e-35
-6.6822e-36
-2.42661e-39
-5.26558e-41
-1.37594e-38
-3.31912e-40
-1.98738e-38
-2.7037e-39
-4.89865e-37
-2.1288e-39
8.64199e-46
5.22224e-39
4.89865e-37
5.22224e-39
1.98739e-38
-2.1288e-39
1.37616e-38
-2.70366e-39
2.43281e-39
-3.31778e-40
2.56526e-40
-5.17835e-41
3.24349e-41
-5.51605e-42
2.88798e-42
-6.36756e-43
-2.88824e-42
-1.20502e-43
-3.24378e-41
-6.36799e-43
-2.56557e-40
-5.51655e-42
-2.43315e-39
-5.17893e-41
-1.37649e-38
-3.31839e-40
-1.99067e-38
-2.7043e-39
-4.90124e-37
-2.13438e-39
-2.46562e-39
5.16982e-39
4.75843e-37
4.88488e-39
-2.46562e-39
-4.88488e-39
-4.90124e-37
-5.16982e-39
-1.99067e-38
2.13438e-39
-1.37649e-38
2.7043e-39
-2.43318e-39
3.31839e-40
-2.56901e-40
5.17834e-41
-3.57231e-41
5.45534e-42
-3.60022e-41
-5.30654e-45
-2.59783e-40
-5.51019e-42
-2.46239e-39
-5.23536e-41
-1.39886e-38
-3.36717e-40
-2.20797e-38
-2.75051e-39
-5.01421e-37
-2.41373e-39
-8.31811e-39
2.80351e-39
8.31777e-39
5.51216e-39
5.01418e-37
2.80346e-39
2.20476e-38
-2.41435e-39
1.38106e-38
-2.75471e-39
-3.5889e-40
-6.76402e-40
5.81046e-41
-3.77456e-39
4.82879e-40
-2.63332e-38
3.75303e-39
-4.37102e-38
2.90585e-39
4.40817e-46
-7.21942e-39
4.37102e-38
-7.21942e-39
2.63333e-38
2.90585e-39
3.77545e-39
3.75302e-39
6.80438e-40
4.8331e-40
8.16445e-41
6.93348e-41
1.05693e-41
7.0753e-42
9.96953e-43
7.6114e-43
-9.97051e-43
1.37758e-43
-1.05703e-41
7.61184e-43
-8.16558e-41
7.07583e-42
-6.80558e-40
6.93412e-41
-3.77657e-39
4.83379e-40
-2.6344e-38
3.75378e-39
-4.3793e-38
2.913e-39
-6.91139e-40
-7.14932e-39
3.9852e-38
-6.72897e-39
-6.91139e-40
6.72897e-39
-4.3793e-38
7.14932e-39
-2.6344e-38
-2.913e-39
-3.77658e-39
-3.75378e-39
-6.8057e-40
-4.83379e-40
-8.17772e-41
-6.93347e-41
-1.17082e-41
-7.00593e-42
-1.1806e-41
5.80624e-45
-8.27722e-41
7.06891e-42
-6.90023e-40
7.00202e-41
-3.84752e-39
4.89692e-40
-2.69416e-38
3.81597e-39
-4.68773e-38
3.32621e-39
-2.31662e-38
-3.88676e-39
2.31661e-38
-7.64622e-39
4.68763e-38
-3.88671e-39
2.69302e-38
3.32658e-39
3.7797e-39
3.81293e-39
3.73323e-40
-1.51395e-40
1.81798e-41
-6.45712e-40
1.44318e-40
-3.42451e-39
9.37465e-40
-5.42991e-39
6.85784e-40
3.86715e-47
-1.79226e-39
5.42991e-39
-1.79226e-39
3.42451e-39
6.85783e-40
6.45826e-40
9.3746e-40
1.51525e-40
1.44456e-40
2.07092e-41
2.18667e-41
2.97889e-42
2.40039e-42
2.98136e-43
2.67144e-43
-2.9817e-43
5.03525e-44
-2.97925e-42
2.67161e-43
-2.0713e-41
2.40059e-42
-1.51564e-40
2.18691e-41
-6.46166e-40
1.44481e-40
-3.42753e-39
9.37727e-40
-5.45096e-39
6.88209e-40
-1.54546e-40
-1.77012e-39
4.76304e-39
-1.64538e-39
-1.54546e-40
1.64538e-39
-5.45096e-39
1.77012e-39
-3.42753e-39
-6.88209e-40
-6.46166e-40
-9.37727e-40
-1.51567e-40
-1.44481e-40
-2.07515e-41
-2.18667e-41
-3.32232e-42
-2.37503e-42
-3.35308e-42
2.16712e-45
-2.1049e-41
2.398e-42
-1.5421e-40
2.21061e-41
-6.63855e-40
1.46614e-40
-3.55801e-39
9.57168e-40
-5.94224e-39
8.10531e-40
-2.91218e-39
-9.79546e-40
2.91216e-39
-1.91919e-39
5.9421e-39
-9.79529e-40
3.55655e-39
8.10653e-40
6.55145e-40
9.56239e-40
1.11326e-40
-2.43779e-41
4.85852e-42
-8.17657e-41
3.60159e-41
-3.39813e-40
2.18969e-40
-5.15937e-40
1.5676e-40
-4.3684e-48
-4.18444e-40
5.15937e-40
-4.18444e-40
3.39812e-40
1.5676e-40
8.17707e-41
2.18969e-40
2.42942e-41
3.6067e-41
3.71857e-42
5.87973e-42
5.76569e-43
6.80762e-43
6.06015e-44
7.94287e-44
-6.06092e-44
1.54964e-44
-5.76649e-43
7.94344e-44
-3.71938e-42
6.80828e-43
-2.43023e-41
5.88049e-42
-8.18401e-41
3.60748e-41
-3.40397e-40
2.19049e-40
-5.19725e-40
1.57449e-40
-2.48797e-41
-4.12485e-40
4.30378e-40
-3.81689e-40
-2.48797e-41
3.81689e-40
-5.19725e-40
4.12485e-40
-3.40397e-40
-1.57449e-40
-8.18402e-41
-2.19049e-40
-2.43032e-41
-3.60747e-41
-3.72755e-42
-5.87973e-42
-6.46809e-43
-6.72953e-43
-6.53279e-43
6.8474e-46
-3.788e-42
6.80005e-43
-2.48111e-41
5.9506e-42
-8.49734e-41
3.6676e-41
-3.60903e-40
2.2424e-40
-5.76616e-40
1.87557e-40
-2.79133e-40
-2.30271e-40
2.79131e-40
-4.49857e-40
5.76609e-40
-2.30269e-40
3.60837e-40
1.8757e-40
8.4431e-41
2.23881e-40
2.7476e-41
-3.71341e-42
9.33748e-43
-9.23216e-42
6.6192e-42
-2.568e-41
3.77967e-41
-3.58189e-41
2.64419e-41
-3.93571e-48
-7.21669e-41
3.58189e-41
-7.21669e-41
2.56795e-41
2.6442e-41
9.22943e-42
3.77971e-41
3.67516e-42
6.63172e-42
6.18418e-43
1.13959e-42
1.02874e-43
1.38123e-43
1.12388e-44
1.66807e-44
-1.12404e-44
3.34975e-45
-1.0289e-43
1.6682e-44
-6.18579e-43
1.38138e-43
-3.67672e-42
1.13976e-42
-9.24238e-42
6.63341e-42
-2.57841e-41
3.78138e-41
-3.64503e-41
2.65818e-41
-3.77976e-42
-7.10106e-41
2.59581e-41
-6.53954e-41
-3.77976e-42
6.53954e-41
-3.64503e-41
7.10106e-41
-2.57841e-41
-2.65818e-41
-9.24239e-42
-3.78138e-41
-3.67688e-42
-6.63339e-42
-6.20152e-43
-1.13959e-42
-1.15977e-43
-1.36435e-43
-1.17215e-43
1.50934e-46
-6.31361e-43
1.37956e-43
-3.76697e-42
1.15442e-42
-9.75623e-42
6.75482e-42
-2.88278e-41
3.88136e-41
-4.18999e-41
3.20572e-41
-1.95984e-41
-3.9985e-41
1.95985e-41
-7.79067e-41
4.19027e-41
-3.99847e-41
2.88543e-41
3.20566e-41
9.85633e-42
3.87257e-41
4.98432e-42
-5.12171e-43
1.64472e-43
-9.78361e-43
1.11377e-42
-1.36258e-42
6.14509e-42
-1.4347e-42
4.24179e-42
-6.04249e-49
-1.1738e-41
1.4347e-42
-1.1738e-41
1.36246e-42
4.24187e-42
9.77529e-43
6.14571e-42
5.03785e-43
1.11982e-42
9.12404e-44
2.01799e-43
1.59723e-44
2.53347e-44
1.79995e-45
3.15486e-45
-1.80023e-45
6.48348e-46
-1.5975e-44
3.15512e-45
-9.12675e-44
2.53377e-44
-5.04042e-43
2.01832e-43
-9.7961e-43
1.12014e-42
-1.37872e-42
6.14887e-42
-1.52802e-42
4.26752e-42
-5.20042e-43
-1.15331e-41
3.63842e-43
-1.05925e-41
-5.20042e-43
1.05925e-41
-1.52802e-42
1.15331e-41
-1.37872e-42
-4.26752e-42
-9.79613e-43
-6.14887e-42
-5.0407e-43
-1.12014e-42
-9.1527e-44
-2.01799e-43
-1.80805e-44
-2.50079e-44
-1.82837e-44
2.97189e-47
-9.33218e-44
2.53018e-44
-5.17987e-43
2.04594e-43
-1.0546e-42
1.14232e-42
-1.78918e-42
6.32501e-42
-1.98551e-42
5.18239e-42
-8.11645e-43
-6.53282e-42
8.11716e-43
-1.27013e-41
1.98641e-42
-6.53284e-42
1.79733e-42
5.18162e-42
1.08942e-42
6.30589e-42
8.29874e-43
-6.70957e-44
5.19394e-44
-1.06518e-43
1.3603e-43
-1.07057e-44
8.8368e-43
8.04461e-44
6.0437e-43
3.96401e-48
-1.69632e-42
-8.04171e-44
-1.69627e-42
1.08941e-44
6.04895e-43
1.06583e-43
8.88002e-43
6.73923e-44
1.67452e-43
1.28358e-44
3.13025e-44
2.33498e-45
4.04831e-45
2.69265e-46
5.16497e-46
-2.69309e-46
1.08249e-46
-2.33541e-45
5.16543e-46
-1.284e-44
4.04882e-45
-6.74317e-44
3.13081e-44
-1.06896e-43
1.67506e-43
-1.32726e-44
8.88518e-43
6.72689e-44
6.08998e-43
-6.97709e-44
-1.66445e-42
-2.00149e-43
-1.52472e-42
-6.97709e-44
1.52472e-42
6.72689e-44
1.66445e-42
-1.32726e-44
-6.08998e-43
-1.06896e-43
-8.88518e-43
-6.74359e-44
-1.67506e-43
-1.28797e-44
-3.13025e-44
-2.65158e-45
-3.99372e-45
-2.68257e-45
5.03161e-48
-1.31482e-44
4.04272e-45
-6.94626e-44
3.17588e-44
-1.17354e-43
1.71037e-43
-6.75164e-44
9.15718e-43
3.04568e-44
7.44631e-43
3.90682e-44
-9.48004e-43
-3.90497e-44
-1.83964e-42
-3.02651e-44
-9.48016e-43
6.91619e-44
7.44424e-43
1.24522e-43
9.12291e-43
1.22597e-43
3.0756e-44
-1.60493e-43
-5.70836e-45
-2.1458e-43
1.16241e-44
9.13708e-44
2.74197e-44
7.92213e-44
3.43289e-47
-2.33876e-43
-2.71359e-44
-2.33615e-43
-9.44686e-45
8.24854e-44
1.18564e-44
1.2224e-43
8.52689e-45
2.36247e-44
1.68341e-45
4.55015e-45
3.14762e-46
6.02155e-46
3.69748e-47
7.83659e-47
-3.69811e-47
1.66831e-47
-3.14824e-46
7.83731e-47
-1.68401e-45
6.02236e-46
-8.5324e-45
4.55102e-45
-1.18994e-44
2.36331e-44
9.1263e-45
1.22319e-43
2.54128e-44
8.30977e-44
-8.84776e-45
-2.28963e-43
-4.07222e-44
-2.09356e-43
-8.84776e-45
2.09356e-43
2.54128e-44
2.28963e-43
9.1263e-45
-8.30977e-44
-1.18995e-44
-1.22319e-43
-8.533e-45
-2.36331e-44
-1.68957e-45
-4.55014e-45
-3.58375e-46
-5.9374e-46
-3.62694e-46
7.8446e-49
-1.72643e-45
6.01282e-46
-8.80533e-45
4.61923e-45
-1.32621e-44
2.41568e-44
2.32589e-45
1.26258e-43
2.24042e-44
1.02094e-43
1.41826e-44
-1.30958e-43
-1.41792e-44
-2.53738e-43
-2.23722e-44
-1.30961e-43
-2.06168e-45
1.02052e-43
1.44115e-44
1.25699e-43
1.71109e-44
8.12488e-43
4.39421e-42
8.55391e-44
-1.70962e-42
2.3758e-44
-2.00408e-43
6.76076e-45
-8.95658e-45
2.7232e-46
-3.15621e-44
-4.25707e-45
-3.0101e-44
-1.77579e-45
1.04826e-44
1.35136e-45
1.56857e-44
1.04366e-45
3.09873e-45
2.11125e-46
6.10817e-46
4.02887e-47
8.24019e-47
4.80025e-48
1.08955e-47
-4.8011e-48
2.35035e-48
-4.0297e-47
1.08966e-47
-2.11203e-46
8.24138e-47
-1.04437e-45
6.10944e-46
-1.35679e-45
3.09996e-45
1.73683e-45
1.56972e-44
4.06508e-45
1.05749e-44
-1.08474e-45
-2.936e-44
-5.84972e-45
-2.67993e-44
-1.08474e-45
2.67993e-44
4.06508e-45
2.936e-44
1.73683e-45
-1.05749e-44
-1.3568e-45
-1.56972e-44
-1.04445e-45
-3.09995e-45
-2.11937e-46
-6.10819e-46
-4.59654e-47
-8.12165e-47
-4.65328e-47
1.11566e-49
-2.16721e-46
8.22778e-47
-1.07922e-45
6.20405e-46
-1.52683e-45
3.17144e-45
9.09913e-46
1.62245e-44
3.79863e-45
1.30519e-44
2.26115e-45
-1.6856e-44
-2.26061e-45
-3.26161e-44
-3.7939e-45
-1.68566e-44
-8.71961e-46
1.30449e-44
1.69141e-45
1.61426e-44
2.2247e-45
1.44064e-41
-2.7149e-41
1.59108e-42
-2.94664e-42
1.95254e-43
-2.71983e-43
1.88801e-44
-2.10406e-44
1.69055e-45
-5.93357e-45
-4.03732e-46
-4.27452e-45
-2.2646e-46
1.4288e-45
1.5243e-46
2.16497e-45
1.21502e-46
4.34848e-46
2.50388e-47
8.72344e-47
4.8523e-48
1.19404e-47
5.8504e-49
1.59805e-48
-5.85129e-49
3.48232e-49
-4.85306e-48
1.59822e-48
-2.50444e-47
1.19423e-47
-1.2153e-46
8.7256e-47
-1.52265e-46
4.3507e-46
2.32765e-46
2.16726e-45
5.1879e-46
1.45075e-45
-1.26392e-46
-4.05131e-45
-7.21809e-46
-3.69313e-45
-1.26392e-46
3.69313e-45
5.1879e-46
4.05131e-45
2.32765e-46
-1.45075e-45
-1.52266e-46
-2.16726e-45
-1.2154e-46
-4.35068e-46
-2.5135e-47
-8.72373e-47
-5.54535e-48
-1.17649e-47
-5.61518e-48
1.66505e-50
-2.5718e-47
1.1922e-47
-1.25718e-46
8.86412e-47
-1.7235e-46
4.45409e-46
1.37044e-46
2.24238e-45
4.93601e-46
1.79681e-45
2.88632e-46
-2.33266e-45
-2.88557e-46
-4.509e-45
-4.9297e-46
-2.33276e-45
-1.3212e-46
1.79564e-45
1.93579e-46
2.22987e-45
3.10058e-46
7.0631e-38
-5.54318e-37
6.44666e-38
-1.92937e-37
1.49027e-38
-1.44523e-37
4.31166e-39
-2.15379e-38
6.80636e-40
-3.39088e-39
1.09398e-40
-3.92723e-40
1.37214e-41
-4.59805e-41
1.68378e-42
-4.66593e-42
1.80244e-43
-4.67678e-43
1.85664e-44
-4.312e-44
1.72967e-45
-3.6634e-45
2.48031e-46
1.0201e-46
5.68246e-47
-1.30692e-46
-5.6845e-47
-2.73387e-46
-3.1898e-47
1.13972e-46
2.13578e-47
1.68246e-46
1.77612e-47
3.78886e-47
4.06558e-48
8.1861e-48
8.41507e-49
1.23285e-48
1.26943e-49
1.75635e-49
1.78081e-50
2.10609e-50
2.13196e-51
2.39121e-51
2.42368e-52
2.44142e-52
4.90494e-53
2.15913e-53
2.43745e-52
-2.17656e-53
2.14179e-51
-2.4595e-52
1.7831e-50
-2.41032e-51
1.25898e-49
-2.12415e-50
8.13624e-49
-1.77158e-49
3.55108e-48
-1.24208e-48
9.79827e-48
-8.20191e-48
-9.12812e-47
-3.69751e-47
-1.52097e-45
-1.48025e-46
-1.8593e-44
2.15795e-46
-2.22447e-43
4.75081e-45
-2.50311e-42
5.61313e-44
-2.75341e-41
6.51548e-43
-2.7703e-40
6.82846e-42
-2.75932e-39
6.16269e-41
-2.38e-38
2.71301e-40
-2.08051e-37
-4.92751e-39
-1.32629e-36
-1.95926e-37
-8.89121e-36
-3.85286e-36
-7.71258e-36
-5.46193e-35
7.80743e-36
-2.93554e-35
-5.47686e-35
8.66143e-36
1.29553e-36
-7.56674e-37
9.49344e-37
-6.31655e-37
1.61935e-37
-1.62296e-37
3.34421e-38
-2.06733e-38
4.59813e-39
-3.00738e-39
6.60461e-40
-3.38206e-40
7.77357e-41
-3.91436e-41
9.07333e-42
-3.94728e-42
9.39542e-43
-3.94426e-43
9.47264e-44
-3.60724e-44
8.79906e-45
-3.20591e-45
7.97404e-46
-2.37833e-46
6.9815e-47
-2.9671e-47
1.61723e-48
-2.19082e-47
-1.71738e-48
8.36148e-48
1.4261e-48
1.2555e-47
1.17313e-48
2.85917e-48
2.71695e-49
6.22341e-49
5.69956e-50
9.44545e-50
8.69754e-51
1.35207e-50
1.23304e-51
1.62912e-51
1.48968e-52
1.8549e-52
1.70725e-53
1.89901e-53
3.50141e-54
1.682e-54
1.75491e-53
-1.68886e-54
1.55752e-52
-1.9023e-53
1.32954e-51
-1.8519e-52
1.00587e-50
-1.61442e-51
7.61199e-50
-1.31884e-50
5.34854e-49
-8.83319e-50
4.73468e-48
-5.22614e-49
4.80075e-47
-1.35073e-48
5.91352e-46
8.89205e-48
7.20924e-45
2.80868e-46
8.48696e-44
3.75959e-45
9.39979e-43
4.56983e-44
1.00745e-41
5.34802e-43
9.9434e-41
5.6663e-42
9.54612e-40
5.26511e-41
8.04485e-39
2.74956e-40
6.64266e-38
-2.91151e-39
4.13361e-37
-1.40438e-37
2.4832e-36
-2.87295e-36
2.91335e-36
-4.20898e-35
-4.34476e-37
-1.97718e-33
-4.22482e-35
-1.39981e-36
3.20446e-35
-1.61946e-35
1.62889e-36
-8.17494e-37
1.24672e-36
5.26735e-38
2.45406e-37
1.44111e-38
3.06375e-38
2.75458e-39
4.26749e-39
3.33159e-40
4.80235e-40
3.95819e-41
5.48747e-41
4.01856e-42
5.53722e-42
4.019e-43
5.49788e-43
3.67066e-44
5.02214e-44
3.27379e-45
4.4656e-45
2.75757e-46
3.73469e-46
2.1711e-47
3.00131e-47
3.53644e-49
2.19287e-48
7.01375e-49
2.6885e-49
8.59534e-49
9.16939e-50
1.96407e-49
1.93726e-50
4.3142e-50
3.96372e-51
6.61016e-51
6.03373e-52
9.54158e-52
8.56018e-53
1.15844e-52
1.03702e-53
1.32724e-53
1.19813e-54
1.36641e-54
3.66177e-55
1.21019e-55
3.23195e-54
-1.30929e-55
4.31362e-53
-1.51974e-54
5.98033e-52
-1.57467e-53
8.37668e-51
-1.54916e-52
1.18614e-49
-1.5587e-51
1.6529e-48
-1.57086e-50
2.26803e-47
-1.76767e-49
3.00352e-46
-2.09368e-48
3.86595e-45
-2.70647e-47
4.74419e-44
-3.48039e-46
5.64151e-43
-4.46581e-45
6.31323e-42
-5.43704e-44
6.86468e-41
-6.34112e-43
6.86907e-40
-6.62188e-42
6.73692e-39
-5.85239e-41
5.79016e-38
-2.08039e-40
4.9577e-37
6.34842e-39
3.189e-36
2.26041e-37
2.08057e-35
4.39388e-36
1.88602e-35
6.25282e-35
1.76375e-35
2.22442e-33
6.26551e-35
-1.7228e-35
1.41176e-36
-5.63161e-37
8.08939e-37
-4.0134e-37
1.41652e-37
9.62322e-38
2.99459e-38
1.85247e-38
4.19934e-39
3.23121e-39
6.12556e-40
3.8499e-40
7.29076e-41
4.55698e-41
8.58408e-42
4.63968e-42
8.94817e-43
4.65348e-43
9.07091e-44
4.26542e-44
8.46442e-45
3.81367e-45
7.64161e-46
3.19858e-46
6.48676e-47
2.6e-47
5.30552e-48
1.92386e-48
4.0656e-49
1.90257e-49
3.73673e-50
6.85987e-50
7.30645e-51
1.41508e-50
1.34556e-51
3.01354e-51
2.62907e-52
4.60061e-52
3.96814e-53
6.63849e-53
5.62401e-54
8.07769e-54
6.83049e-55
9.26909e-55
7.91059e-56
9.5588e-56
2.36461e-56
8.07559e-57
2.01777e-55
-1.61437e-56
2.62761e-54
-2.24551e-55
3.54737e-53
-3.05426e-54
4.84183e-52
-4.22217e-53
6.67643e-51
-6.00314e-52
9.07921e-50
-8.55539e-51
1.21153e-48
-1.22391e-49
1.5636e-47
-1.71366e-48
1.94548e-46
-2.35632e-47
2.31559e-45
-3.11773e-46
2.63163e-44
-4.00531e-45
2.83395e-43
-4.86989e-44
2.88666e-42
-5.65511e-43
2.74608e-41
-5.83335e-42
2.42506e-40
-4.91945e-41
1.94294e-39
-9.87075e-41
1.35938e-38
7.7522e-39
7.94956e-38
2.42863e-37
2.77828e-37
4.5703e-36
9.94535e-37
6.33389e-35
1.48482e-36
4.45883e-35
6.34918e-35
7.79515e-37
1.39861e-37
-4.4002e-37
-1.83801e-38
-5.60198e-38
2.6069e-39
9.53571e-39
2.16907e-39
2.40406e-39
4.33213e-40
4.56103e-40
7.95003e-41
5.83647e-41
1.06889e-41
7.18558e-42
1.37552e-42
7.60071e-43
1.52003e-43
7.81722e-44
1.61187e-44
7.3414e-45
1.55442e-45
6.6803e-46
1.44061e-46
5.69626e-47
1.24788e-47
4.69637e-48
1.03999e-48
3.62523e-49
8.18357e-50
3.0422e-50
6.67209e-51
5.70359e-51
7.7747e-52
1.00227e-51
1.07709e-52
2.01063e-52
1.82439e-53
3.03385e-53
2.63378e-54
4.36577e-54
3.6629e-55
5.32212e-55
4.405e-56
6.12054e-56
2.12681e-57
6.35621e-57
-4.92233e-56
1.02355e-57
-8.29936e-55
7.43358e-57
-1.34431e-53
1.2957e-55
-2.11873e-52
2.19105e-54
-3.23434e-51
3.57422e-53
-4.80143e-50
5.64726e-52
-6.87809e-49
8.61823e-51
-9.57415e-48
1.27661e-49
-1.27868e-46
1.82206e-48
-1.65893e-45
2.52565e-47
-2.04707e-44
3.35475e-46
-2.45698e-43
4.33054e-45
-2.76569e-42
5.31149e-44
-3.04363e-41
6.36036e-43
-3.06352e-40
7.17921e-42
-3.05372e-39
8.10479e-41
-2.63547e-38
8.74104e-40
-2.30667e-37
1.01058e-38
-1.47158e-36
1.13156e-37
-9.88495e-36
1.31334e-36
-8.57594e-36
1.18848e-35
8.71652e-36
7.83057e-35
1.19006e-35
9.80776e-36
1.0711e-38
-7.79525e-38
-6.25787e-39
-1.01562e-38
-6.15484e-40
5.44451e-40
8.68986e-41
2.50976e-40
3.16181e-41
5.86646e-41
7.21813e-42
8.29484e-42
1.07487e-42
1.10486e-42
1.47372e-43
1.23254e-43
1.70263e-44
1.32235e-44
1.8632e-45
1.28114e-45
1.84294e-46
1.19519e-46
1.74117e-47
1.039e-47
1.53321e-48
8.7059e-49
1.29528e-49
6.87728e-50
1.03432e-50
5.45758e-51
8.23091e-52
6.19542e-52
7.80925e-53
8.19003e-53
8.74738e-54
1.40181e-53
1.26034e-54
2.01592e-54
1.70661e-55
2.84061e-55
2.30395e-56
3.44013e-56
2.79714e-57
3.94681e-57
1.11624e-57
4.58717e-58
1.36413e-56
9.46772e-58
2.24394e-55
1.58351e-56
3.5963e-54
2.69187e-55
5.60997e-53
4.46308e-54
8.47746e-52
7.19041e-53
1.24439e-50
1.12827e-51
1.7617e-49
1.71502e-50
2.41791e-48
2.53594e-49
3.18112e-47
3.61686e-48
4.05047e-46
5.01335e-47
4.89921e-45
6.6615e-46
5.72958e-44
8.6029e-45
6.27368e-43
1.0558e-43
6.64897e-42
1.26439e-42
6.42984e-41
1.4258e-41
6.04842e-40
1.60219e-40
4.91194e-39
1.70666e-39
3.90815e-38
1.92784e-38
2.2668e-37
2.08195e-37
1.26388e-36
2.34338e-36
1.07403e-36
2.05142e-35
-1.06693e-36
1.34839e-34
2.04912e-35
-1.24451e-36
1.15655e-39
-7.99733e-39
-1.14483e-39
-1.17946e-39
-1.53631e-40
-6.74897e-42
-7.59457e-42
1.80852e-41
1.42414e-42
5.34166e-42
5.71882e-43
8.31531e-43
1.00048e-43
1.17956e-43
1.50566e-44
1.37658e-44
1.84046e-45
1.5258e-45
2.0981e-46
1.51756e-46
2.1377e-47
1.44426e-47
2.06677e-48
1.27694e-48
1.85299e-49
1.08453e-49
1.58869e-50
8.69201e-51
1.28555e-51
6.84071e-52
1.01626e-52
6.37477e-53
8.58232e-54
6.84449e-54
8.04109e-55
9.80037e-55
9.45835e-56
1.31369e-55
1.14802e-56
1.78933e-56
1.48112e-57
2.1406e-57
5.77236e-58
2.4452e-58
7.12744e-57
3.45672e-59
1.20783e-55
1.70158e-58
2.00154e-54
2.9324e-57
3.22434e-53
4.99535e-56
5.05848e-52
8.30305e-55
7.69063e-51
1.34144e-53
1.13698e-49
2.11193e-52
1.62217e-48
3.22166e-51
2.24752e-47
4.78405e-50
2.98754e-46
6.85464e-49
3.85334e-45
9.55999e-48
4.72692e-44
1.28136e-46
5.62992e-43
1.68457e-45
6.28921e-42
2.15742e-44
6.84854e-41
2.88596e-43
6.82366e-40
4.22808e-42
6.69886e-39
7.57359e-41
5.70123e-38
1.5447e-39
4.87331e-37
3.26039e-38
3.04861e-36
6.22836e-37
1.95947e-35
1.00651e-35
1.6985e-35
1.26088e-34
-1.69716e-35
2.68866e-34
1.25875e-34
-1.93144e-35
1.05097e-40
-9.95494e-40
-1.1823e-40
-1.50971e-40
-1.79469e-41
-1.00505e-41
-1.67146e-42
6.42595e-43
-2.69722e-45
4.17732e-43
3.6271e-44
7.61379e-44
7.72401e-45
1.18478e-44
1.27346e-45
1.46152e-45
1.6407e-46
1.68725e-46
1.93853e-47
1.72818e-47
2.02827e-48
1.68281e-48
2.00066e-49
1.51468e-49
1.82314e-50
1.30511e-50
1.58357e-51
1.05959e-51
1.29625e-52