/*--------------------------------*- C++ -*----------------------------------*\
| =========                 |                                                 |
| \\      /  F ield         | OpenFOAM: The Open Source CFD Toolbox           |
|  \\    /   O peration     | Version:  2.4.0                                 |
|   \\  /    A nd           | Web:      www.OpenFOAM.org                      |
|    \\/     M anipulation  |                                                 |
\*---------------------------------------------------------------------------*/
FoamFile
{
    version     2.0;
    format      ascii;
    class       volVectorField;
    location    "0.65";
    object      U;
}
// * * * * * * * * * * * * * * * * * * * * * * * * * * * * * * * * * * * * * //

dimensions      [0 1 -1 0 0 0 0];

internalField   nonuniform List<vector> 
7700
(
(8.58001e-36 2.62816e-36 0)
(7.87056e-35 1.82319e-35 0)
(3.99146e-34 1.34513e-34 0)
(4.04866e-33 1.02885e-34 0)
(3.72071e-33 -2.58798e-34 0)
(-3.71924e-33 -2.58483e-34 0)
(-4.03861e-33 1.06054e-34 0)
(-3.11385e-34 1.5564e-34 0)
(4.00494e-34 1.71344e-34 0)
(4.44914e-33 2.43452e-34 0)
(7.85698e-33 -1.34192e-34 0)
(4.87987e-34 -3.61682e-34 0)
(-3.23247e-33 1.02884e-34 0)
(3.80953e-33 2.37391e-34 0)
(4.05881e-33 -1.06091e-34 0)
(4.00494e-34 -1.3487e-34 0)
(7.89448e-35 -1.82782e-35 0)
(8.835e-36 -2.85495e-36 0)
(1.20298e-36 -3.18889e-37 0)
(1.27896e-37 -3.70715e-38 0)
(1.43164e-38 -3.69834e-39 0)
(1.39738e-39 -3.68404e-40 0)
(1.36608e-40 -3.34038e-41 0)
(1.32859e-41 -2.72491e-42 0)
(1.33605e-41 2.74487e-42 0)
(1.3759e-40 3.36313e-41 0)
(1.4085e-39 3.71127e-40 0)
(1.44406e-38 3.72875e-39 0)
(1.29155e-37 3.7406e-38 0)
(1.21587e-36 3.22213e-37 0)
(8.94831e-36 2.88826e-36 0)
(8.00171e-35 1.85593e-35 0)
(4.08098e-34 1.37399e-34 0)
(4.12866e-33 1.2144e-34 0)
(4.12866e-33 -1.2144e-34 0)
(4.08098e-34 -1.37399e-34 0)
(8.00171e-35 -1.85593e-35 0)
(8.94831e-36 -2.88826e-36 0)
(1.21587e-36 -3.22213e-37 0)
(1.29155e-37 -3.74069e-38 0)
(1.44369e-38 -3.7362e-39 0)
(1.38413e-39 -4.21827e-40 0)
(3.26968e-41 -3.67962e-40 0)
(-4.54645e-40 -1.45117e-39 0)
(2.55451e-41 -6.63362e-39 0)
(5.69592e-40 -9.79253e-40 0)
(2.64477e-36 -1.19253e-36 0)
(2.17471e-35 -9.59952e-36 0)
(1.08843e-34 -7.07893e-35 0)
(7.22202e-34 -5.40265e-35 0)
(6.32737e-34 1.36017e-34 0)
(-6.32253e-34 1.35863e-34 0)
(-7.19002e-34 -5.56199e-35 0)
(-8.42126e-35 -8.18557e-35 0)
(1.09286e-34 -9.01831e-35 0)
(8.31482e-34 -1.27864e-34 0)
(1.37952e-33 7.06333e-35 0)
(1.33824e-34 1.90043e-34 0)
(-4.98824e-34 -5.40263e-35 0)
(6.5771e-34 -1.24814e-34 0)
(7.25435e-34 5.56373e-35 0)
(1.09286e-34 7.09637e-35 0)
(2.18341e-35 9.62893e-36 0)
(2.80422e-36 1.43977e-36 0)
(3.9099e-37 1.55769e-37 0)
(4.4222e-38 1.74049e-38 0)
(5.05309e-39 1.68301e-39 0)
(5.10382e-40 1.62797e-40 0)
(5.0721e-41 1.44086e-41 0)
(5.04712e-42 1.15238e-42 0)
(5.07619e-42 -1.16052e-42 0)
(5.1098e-41 -1.45031e-41 0)
(5.14596e-40 -1.63949e-40 0)
(5.09908e-39 -1.69616e-39 0)
(4.46809e-38 -1.75531e-38 0)
(3.95523e-37 -1.57287e-37 0)
(2.84329e-36 -1.45546e-36 0)
(2.21798e-35 -9.76696e-36 0)
(1.11689e-34 -7.22443e-35 0)
(7.44376e-34 -6.37915e-35 0)
(7.44376e-34 6.37915e-35 0)
(1.11689e-34 7.22443e-35 0)
(2.21798e-35 9.76696e-36 0)
(2.84329e-36 1.45546e-36 0)
(3.95523e-37 1.57286e-37 0)
(4.46752e-38 1.75458e-38 0)
(5.06056e-39 1.63515e-39 0)
(2.60157e-40 -2.59589e-40 0)
(-1.05282e-39 -2.83016e-39 0)
(-4.96827e-39 -1.26646e-38 0)
(2.42473e-40 -5.87793e-38 0)
(5.88311e-39 -8.67285e-39 0)
(6.87816e-37 -3.83187e-37 0)
(4.72331e-36 -2.95373e-36 0)
(1.75036e-35 -1.76223e-35 0)
(9.00821e-35 -1.24942e-35 0)
(7.67218e-35 3.35925e-35 0)
(-7.6585e-35 3.35385e-35 0)
(-8.92749e-35 -1.30146e-35 0)
(-1.20652e-35 -2.10514e-35 0)
(1.76271e-35 -2.35966e-35 0)
(1.07707e-34 -3.11087e-35 0)
(1.72226e-34 1.75674e-35 0)
(2.30374e-35 4.60866e-35 0)
(-5.3658e-35 -1.24941e-35 0)
(8.22538e-35 -3.01155e-35 0)
(9.0899e-35 1.30209e-35 0)
(1.76271e-35 1.76834e-35 0)
(4.74333e-36 2.96355e-36 0)
(6.96846e-37 4.66559e-37 0)
(1.08808e-37 5.45849e-38 0)
(1.3179e-38 6.28662e-39 0)
(1.59069e-39 6.33873e-40 0)
(1.6698e-40 6.2679e-41 0)
(1.71162e-41 5.69967e-42 0)
(1.74666e-42 4.6299e-43 0)
(1.75704e-42 -4.66379e-43 0)
(1.72488e-41 -5.73837e-42 0)
(1.68433e-40 -6.31417e-41 0)
(1.60617e-39 -6.39063e-40 0)
(1.33286e-38 -6.34351e-39 0)
(1.10228e-37 -5.5155e-38 0)
(7.084e-37 -4.72201e-37 0)
(4.83862e-36 -3.01172e-36 0)
(1.8212e-35 -1.80941e-35 0)
(9.4919e-35 -1.55052e-35 0)
(9.4919e-35 1.55052e-35 0)
(1.8212e-35 1.80941e-35 0)
(4.83862e-36 3.01172e-36 0)
(7.084e-37 4.722e-37 0)
(1.10223e-37 5.51487e-38 0)
(1.32824e-38 6.28788e-39 0)
(1.28678e-39 1.68593e-40 0)
(-1.967e-39 -3.24126e-39 0)
(-9.37414e-39 -2.25083e-38 0)
(-4.29343e-38 -1.01975e-37 0)
(1.86927e-39 -4.80529e-37 0)
(5.00884e-38 -7.07107e-38 0)
(1.24612e-37 -1.12466e-37 0)
(7.39607e-37 -7.86412e-37 0)
(2.05928e-36 -4.36775e-36 0)
(8.54927e-36 -3.01831e-36 0)
(7.12819e-36 8.32298e-36 0)
(-7.10165e-36 8.30649e-36 0)
(-8.40494e-36 -3.16941e-36 0)
(-1.19365e-36 -5.2906e-36 0)
(2.08299e-36 -5.95948e-36 0)
(1.06318e-35 -7.67307e-36 0)
(1.65395e-35 4.35039e-36 0)
(2.94275e-36 1.13412e-35 0)
(-4.18009e-36 -3.01816e-36 0)
(8.01143e-36 -7.38506e-36 0)
(8.69542e-36 3.17144e-36 0)
(2.08299e-36 4.38606e-36 0)
(7.4276e-37 7.88977e-37 0)
(1.23089e-37 1.34768e-37 0)
(2.08564e-38 1.67264e-38 0)
(2.67302e-39 2.03175e-39 0)
(3.35228e-40 2.13218e-40 0)
(3.63095e-41 2.17951e-41 0)
(3.80642e-42 2.0337e-42 0)
(3.96608e-43 1.68461e-43 0)
(3.99022e-43 -1.69734e-43 0)
(3.8369e-42 -2.04802e-42 0)
(3.66386e-41 -2.19635e-41 0)
(3.38663e-40 -2.15066e-40 0)
(2.70546e-39 -2.05148e-39 0)
(2.11546e-38 -1.69175e-38 0)
(1.25419e-37 -1.36583e-37 0)
(7.6087e-37 -8.03628e-37 0)
(2.18455e-36 -4.50368e-36 0)
(9.30972e-36 -3.82157e-36 0)
(9.30972e-36 3.82157e-36 0)
(2.18455e-36 4.50368e-36 0)
(7.6087e-37 8.03628e-37 0)
(1.25415e-37 1.36578e-37 0)
(2.11123e-38 1.68726e-38 0)
(2.34887e-39 1.65151e-39 0)
(-2.15599e-39 -3.21084e-39 0)
(-1.68808e-38 -2.43917e-38 0)
(-7.56793e-38 -1.69395e-37 0)
(-3.51582e-37 -7.84148e-37 0)
(1.31782e-38 -3.76909e-36 0)
(4.03514e-37 -5.521e-37 0)
(1.70024e-38 -4.23673e-38 0)
(1.10943e-37 -1.53368e-37 0)
(2.04771e-37 -7.62561e-37 0)
(5.85178e-37 -5.09898e-37 0)
(4.7361e-37 1.44206e-36 0)
(-4.68755e-37 1.43884e-36 0)
(-5.60817e-37 -5.38686e-37 0)
(-7.42242e-38 -9.30467e-37 0)
(2.0834e-37 -1.05365e-36 0)
(7.92981e-37 -1.32299e-36 0)
(1.18747e-36 7.54078e-37 0)
(3.37149e-37 1.95114e-36 0)
(-1.35378e-37 -5.08883e-37 0)
(6.06498e-37 -1.26635e-36 0)
(6.08956e-37 5.39114e-37 0)
(2.08339e-37 7.6143e-37 0)
(1.09799e-37 1.46595e-37 0)
(2.01416e-38 2.64122e-38 0)
(3.68812e-39 3.43946e-39 0)
(4.94634e-40 4.32864e-40 0)
(6.42351e-41 4.68565e-41 0)
(7.13759e-42 4.89981e-42 0)
(7.6337e-43 4.66483e-43 0)
(8.09083e-44 3.91843e-44 0)
(8.14111e-44 -3.94882e-44 0)
(7.69653e-43 -4.69862e-43 0)
(7.20456e-42 -4.93897e-42 0)
(6.49227e-41 -4.72798e-41 0)
(5.00995e-40 -4.37289e-40 0)
(3.74507e-39 -3.48133e-39 0)
(2.05705e-38 -2.67973e-38 0)
(1.12979e-37 -1.49592e-37 0)
(2.24664e-37 -7.84309e-37 0)
(6.9762e-37 -6.58428e-37 0)
(6.9762e-37 6.58428e-37 0)
(2.24664e-37 7.84309e-37 0)
(1.12975e-37 1.49589e-37 0)
(2.05363e-38 2.67682e-38 0)
(3.44053e-39 3.18884e-39 0)
(-2.10122e-39 -2.20154e-39 0)
(-1.84026e-38 -2.28917e-38 0)
(-1.27504e-37 -1.66434e-37 0)
(-5.82934e-37 -1.18018e-36 0)
(-2.76458e-36 -5.62041e-36 0)
(8.43153e-38 -2.75844e-35 0)
(3.11453e-36 -4.03434e-36 0)
(-3.02331e-38 -1.61732e-37 0)
(2.83775e-38 -8.21416e-38 0)
(2.34817e-38 -1.63986e-37 0)
(2.52908e-38 -9.04139e-38 0)
(1.64497e-38 2.3687e-37 0)
(-1.48051e-38 2.37528e-37 0)
(-1.80049e-38 -8.81796e-38 0)
(-4.81647e-40 -1.55085e-37 0)
(1.88395e-38 -1.76066e-37 0)
(4.0369e-38 -2.18126e-37 0)
(5.48307e-38 1.24494e-37 0)
(3.63656e-38 3.21127e-37 0)
(2.08294e-38 -8.27525e-38 0)
(3.38671e-38 -2.07881e-37 0)
(2.51117e-38 8.82343e-38 0)
(1.88391e-38 1.25874e-37 0)
(1.47725e-38 2.51898e-38 0)
(2.93564e-39 4.76489e-39 0)
(5.68734e-40 6.43792e-40 0)
(7.91011e-41 8.36528e-41 0)
(1.05514e-41 9.28388e-42 0)
(1.19781e-42 9.90437e-43 0)
(1.30207e-43 9.5835e-44 0)
(1.40062e-44 8.14673e-45 0)
(1.40948e-44 -8.21122e-45 0)
(1.31304e-43 -9.65456e-44 0)
(1.20938e-42 -9.98578e-43 0)
(1.06685e-41 -9.37072e-42 0)
(8.01663e-41 -8.45458e-41 0)
(5.78062e-40 -6.52068e-40 0)
(3.00393e-39 -4.83906e-39 0)
(1.52597e-38 -2.5748e-38 0)
(2.11849e-38 -1.29976e-37 0)
(3.67895e-38 -1.08491e-37 0)
(3.67893e-38 1.08491e-37 0)
(2.11827e-38 1.29975e-37 0)
(1.52374e-38 2.57315e-38 0)
(2.78008e-39 4.66525e-39 0)
(-1.43717e-39 -1.11696e-39 0)
(-1.73905e-38 -1.61092e-38 0)
(-1.26156e-37 -1.43516e-37 0)
(-8.89514e-37 -1.06621e-36 0)
(-4.17923e-36 -7.78938e-36 0)
(-2.0259e-35 -3.85267e-35 0)
(4.49728e-37 -1.94938e-34 0)
(2.2306e-35 -2.83226e-35 0)
(-2.36255e-37 -1.13491e-36 0)
(1.17435e-37 -4.07987e-37 0)
(4.43444e-38 -2.95746e-37 0)
(2.74337e-38 -6.56179e-38 0)
(4.02736e-39 2.42506e-38 0)
(2.96958e-39 3.30599e-38 0)
(2.38222e-39 -1.28555e-38 0)
(7.68715e-40 -2.27113e-38 0)
(1.7095e-39 -2.58281e-38 0)
(-2.25094e-41 -3.15775e-38 0)
(-1.11122e-39 1.80533e-38 0)
(4.03929e-39 4.64129e-38 0)
(5.78867e-39 -1.18184e-38 0)
(7.00838e-40 -2.99738e-38 0)
(-1.22626e-39 1.26781e-38 0)
(1.70698e-39 1.82759e-38 0)
(1.95031e-39 3.79048e-39 0)
(4.09228e-40 7.44055e-40 0)
(8.27132e-41 1.03689e-40 0)
(1.18201e-41 1.38127e-41 0)
(1.61095e-42 1.56544e-42 0)
(1.85992e-43 1.69733e-43 0)
(2.04902e-44 1.66545e-44 0)
(2.23059e-45 1.43001e-45 0)
(2.24491e-45 -1.44154e-45 0)
(2.06662e-44 -1.67805e-44 0)
(1.87831e-43 -1.71162e-43 0)
(1.62935e-42 -1.58051e-42 0)
(1.19852e-41 -1.39655e-41 0)
(8.41341e-41 -1.05081e-40 0)
(4.19396e-40 -7.56269e-40 0)
(2.02083e-39 -3.88001e-39 0)
(2.03025e-39 -1.89131e-38 0)
(2.90964e-40 -1.56969e-38 0)
(2.89941e-40 1.56962e-38 0)
(2.01757e-39 1.89057e-38 0)
(1.88703e-39 3.79573e-39 0)
(-9.40036e-40 -1.43657e-40 0)
(-1.23288e-38 -9.18305e-39 0)
(-1.09621e-37 -8.6499e-38 0)
(-8.09316e-37 -7.84591e-37 0)
(-5.86603e-36 -6.0119e-36 0)
(-2.85265e-35 -4.55911e-35 0)
(-1.42798e-34 -2.37769e-34 0)
(1.89122e-36 -1.23933e-33 0)
(1.53273e-34 -1.80409e-34 0)
(-1.48658e-36 -7.50289e-36 0)
(1.04254e-36 -2.71299e-36 0)
(3.44424e-37 -1.91229e-36 0)
(2.12188e-37 -3.62932e-37 0)
(4.02536e-38 -6.28449e-38 0)
(8.29862e-39 -4.35667e-39 0)
(1.65779e-39 -2.94217e-39 0)
(2.94308e-40 -3.30034e-39 0)
(1.78332e-40 -3.62474e-39 0)
(-3.43217e-40 -4.37657e-39 0)
(-6.65333e-40 2.50281e-39 0)
(4.55888e-40 6.42224e-39 0)
(9.13602e-40 -1.6213e-39 0)
(-1.47678e-40 -4.13957e-39 0)
(-4.40768e-40 1.74784e-39 0)
(1.61756e-40 2.53642e-39 0)
(2.44538e-40 5.39366e-40 0)
(5.33227e-41 1.09122e-40 0)
(1.11064e-41 1.55729e-41 0)
(1.62188e-42 2.11715e-42 0)
(2.24815e-43 2.43964e-43 0)
(2.63272e-44 2.68065e-44 0)
(2.9327e-45 2.65999e-45 0)
(3.22571e-46 2.30279e-46 0)
(3.24668e-46 -2.32162e-46 0)
(2.95832e-45 -2.68043e-45 0)
(2.65928e-44 -2.70367e-44 0)
(2.27446e-43 -2.46369e-43 0)
(1.64522e-42 -2.14125e-42 0)
(1.13043e-41 -1.57896e-41 0)
(5.47137e-41 -1.1099e-40 0)
(2.53966e-40 -5.52769e-40 0)
(2.03483e-40 -2.62949e-39 0)
(-2.53295e-40 -2.17405e-39 0)
(-2.58523e-40 2.17103e-39 0)
(1.38087e-40 2.59593e-39 0)
(-4.43656e-40 1.63021e-40 0)
(-7.13058e-39 -4.10931e-39 0)
(-6.66856e-38 -4.43744e-38 0)
(-6.01554e-37 -4.22968e-37 0)
(-4.56084e-36 -3.96336e-36 0)
(-3.41104e-35 -3.16937e-35 0)
(-1.73236e-34 -2.54393e-34 0)
(-8.95599e-34 -1.42707e-33 0)
(2.57959e-36 -7.85253e-33 0)
(9.27767e-34 -1.12539e-33 0)
(-6.97666e-36 -4.7928e-35 0)
(9.76978e-36 -1.64754e-35 0)
(2.84018e-36 -1.15947e-35 0)
(1.51045e-36 -2.13441e-36 0)
(2.75937e-37 -3.84598e-37 0)
(5.1355e-38 -4.99861e-38 0)
(7.02163e-39 -6.68552e-39 0)
(9.32531e-40 -1.1183e-39 0)
(1.18594e-40 -5.4345e-40 0)
(-5.08358e-41 -5.70221e-40 0)
(-1.10004e-40 3.21685e-40 0)
(5.25424e-41 8.25409e-40 0)
(1.2173e-40 -2.06703e-40 0)
(-3.13115e-41 -5.31161e-40 0)
(-7.00768e-41 2.23829e-40 0)
(1.65182e-41 3.26968e-40 0)
(2.97544e-41 7.11111e-41 0)
(6.65594e-42 1.47292e-41 0)
(1.41735e-42 2.14428e-42 0)
(2.10446e-43 2.96305e-43 0)
(2.95667e-44 3.4627e-44 0)
(3.50218e-45 3.84701e-45 0)
(3.93671e-46 3.85449e-46 0)
(4.36669e-47 3.36025e-47 0)
(4.39537e-47 -3.38809e-47 0)
(3.97156e-46 -3.88453e-46 0)
(3.53807e-45 -3.88059e-45 0)
(2.99192e-44 -3.49754e-44 0)
(2.13542e-43 -2.99761e-43 0)
(1.44327e-42 -2.175e-42 0)
(6.83506e-42 -1.49904e-41 0)
(3.0941e-41 -7.29553e-41 0)
(2.15236e-41 -3.39538e-40 0)
(-4.96011e-41 -2.80336e-40 0)
(-7.37706e-41 2.70412e-40 0)
(-2.84262e-40 2.27966e-40 0)
(-3.27642e-39 -1.23869e-39 0)
(-3.46814e-38 -1.44077e-38 0)
(-3.28712e-37 -1.54927e-37 0)
(-3.04862e-36 -1.52117e-36 0)
(-2.38803e-35 -1.48953e-35 0)
(-1.86499e-34 -1.27606e-34 0)
(-9.97254e-34 -1.11234e-33 0)
(-5.47344e-33 -7.03318e-33 0)
(-2.62967e-35 -4.03931e-32 0)
(5.4639e-33 -5.86631e-33 0)
(-1.15472e-35 -2.66974e-34 0)
(9.55607e-35 -9.55123e-35 0)
(2.31311e-35 -6.9823e-35 0)
(9.63005e-36 -1.22591e-35 0)
(1.64907e-36 -2.12361e-36 0)
(2.9149e-37 -2.68397e-37 0)
(3.8224e-38 -3.33306e-38 0)
(4.90552e-39 -3.60751e-39 0)
(5.41307e-40 -4.2731e-40 0)
(4.91929e-41 -1.04213e-40 0)
(-8.80635e-42 3.64978e-41 0)
(6.43149e-42 1.01216e-40 0)
(1.46497e-41 -2.52716e-41 0)
(-4.26364e-42 -6.52176e-41 0)
(-8.9241e-42 2.74405e-41 0)
(1.74243e-42 4.02923e-41 0)
(3.44729e-42 8.91616e-42 0)
(7.86432e-43 1.88009e-42 0)
(1.70285e-43 2.77909e-43 0)
(2.56376e-44 3.88823e-44 0)
(3.64188e-45 4.59324e-45 0)
(4.35639e-46 5.14611e-46 0)
(4.93458e-47 5.19446e-47 0)
(5.51406e-48 4.55222e-48 0)
(5.55038e-48 -4.59034e-48 0)
(4.97838e-47 -5.23545e-47 0)
(4.40102e-46 -5.19174e-46 0)
(3.68504e-45 -4.64037e-45 0)
(2.60074e-44 -3.93475e-44 0)
(1.73253e-43 -2.82031e-43 0)
(8.05096e-43 -1.91506e-42 0)
(3.54665e-42 -9.16539e-42 0)
(1.76664e-42 -4.20411e-41 0)
(-1.37767e-41 -3.64713e-41 0)
(-9.66741e-41 7.59207e-42 0)
(-1.05926e-39 -2.872e-40 0)
(-1.16461e-38 -3.93203e-39 0)
(-1.24508e-37 -4.42083e-38 0)
(-1.20811e-36 -4.90397e-37 0)
(-1.15389e-35 -5.02336e-36 0)
(-9.39787e-35 -5.29402e-35 0)
(-7.67391e-34 -5.02372e-34 0)
(-4.37534e-33 -5.00895e-33 0)
(-2.53048e-32 -3.69663e-32 0)
(-2.765e-34 -2.3952e-31 0)
(2.31959e-32 -3.27088e-32 0)
(-6.3622e-36 -1.97603e-36 0)
(-6.2892e-35 -1.43292e-35 0)
(-3.29793e-34 -1.16659e-34 0)
(-3.68195e-33 -9.16559e-35 0)
(-3.4094e-33 2.25024e-34 0)
(3.4094e-33 2.25024e-34 0)
(3.68195e-33 -9.16559e-35 0)
(3.29796e-34 -1.16658e-34 0)
(6.29532e-35 -1.43333e-35 0)
(6.47785e-36 -2.12975e-36 0)
(8.43253e-37 -2.19902e-37 0)
(8.24218e-38 -2.44573e-38 0)
(-5.20357e-43 -4.5105e-39 0)
(-8.24281e-38 -2.44588e-38 0)
(-8.43328e-37 -2.1992e-37 0)
(-6.47866e-36 -2.12996e-36 0)
(-6.29621e-35 -1.43355e-35 0)
(-3.2988e-34 -1.16683e-34 0)
(-3.6828e-33 -9.1878e-35 0)
(-3.41596e-33 2.22869e-34 0)
(3.34559e-33 2.10468e-34 0)
(3.34559e-33 -2.10468e-34 0)
(-3.41596e-33 -2.22869e-34 0)
(-3.6828e-33 9.1878e-35 0)
(-3.2988e-34 1.16683e-34 0)
(-6.29622e-35 1.43355e-35 0)
(-6.47948e-36 2.12975e-36 0)
(-8.52318e-37 2.1763e-37 0)
(-1.67199e-37 -1.94333e-40 0)
(-8.60284e-37 -2.19688e-37 0)
(-6.55378e-36 -2.15172e-36 0)
(-6.37215e-35 -1.45309e-35 0)
(-3.35506e-34 -1.1859e-34 0)
(-3.73919e-33 -1.04057e-34 0)
(-3.68195e-33 1.20767e-34 0)
(-6.77631e-40 2.37624e-34 0)
(3.68194e-33 1.20765e-34 0)
(3.73913e-33 -1.04075e-34 0)
(3.34657e-34 -1.18627e-34 0)
(5.94889e-35 -1.31691e-35 0)
(-1.96552e-36 8.99444e-37 0)
(-1.73386e-35 7.54299e-36 0)
(-9.03853e-35 6.138e-35 0)
(-6.61149e-34 4.81312e-35 0)
(-5.86316e-34 -1.18251e-34 0)
(5.86316e-34 -1.18251e-34 0)
(6.6115e-34 4.81311e-35 0)
(9.03867e-35 6.13798e-35 0)
(1.73624e-35 7.54982e-36 0)
(2.0569e-36 1.071e-36 0)
(2.73188e-37 1.07122e-37 0)
(2.84527e-38 1.14383e-38 0)
(-1.99546e-43 2.04676e-39 0)
(-2.84551e-38 1.1439e-38 0)
(-2.73216e-37 1.0713e-37 0)
(-2.05719e-36 1.07109e-36 0)
(-1.73656e-35 7.55085e-36 0)
(-9.04157e-35 6.13913e-35 0)
(-6.61426e-34 4.82393e-35 0)
(-5.88402e-34 -1.17169e-34 0)
(5.68677e-34 -1.10593e-34 0)
(5.68677e-34 1.10593e-34 0)
(-5.88402e-34 1.17169e-34 0)
(-6.61426e-34 -4.82393e-35 0)
(-9.04157e-35 -6.13913e-35 0)
(-1.73656e-35 -7.55084e-36 0)
(-2.05749e-36 -1.071e-36 0)
(-2.76382e-37 -1.06092e-37 0)
(-5.7764e-38 8.5837e-41 0)
(-2.79174e-37 1.07028e-37 0)
(-2.0831e-36 1.08131e-36 0)
(-1.76098e-35 7.64652e-36 0)
(-9.21963e-35 6.23541e-35 0)
(-6.76702e-34 5.47067e-35 0)
(-6.6115e-34 -6.34471e-35 0)
(-2.74242e-40 -1.24924e-34 0)
(6.61146e-34 -6.34464e-35 0)
(6.76675e-34 5.4712e-35 0)
(9.18968e-35 6.23053e-35 0)
(1.59738e-35 5.83132e-36 0)
(-5.14012e-37 2.88544e-37 0)
(-3.80671e-36 2.32979e-36 0)
(-1.46215e-35 1.53532e-35 0)
(-8.31119e-35 1.1281e-35 0)
(-7.18546e-35 -2.93545e-35 0)
(7.18546e-35 -2.93545e-35 0)
(8.3112e-35 1.1281e-35 0)
(1.46216e-35 1.53531e-35 0)
(3.80993e-36 2.33178e-36 0)
(5.14523e-37 3.46597e-37 0)
(7.6507e-38 3.75369e-38 0)
(8.50871e-39 4.12367e-39 0)
(-7.0401e-44 7.69804e-40 0)
(-8.50954e-39 4.12393e-39 0)
(-7.65164e-38 3.754e-38 0)
(-5.1462e-37 3.46633e-37 0)
(-3.81092e-36 2.33217e-36 0)
(-1.46303e-35 1.53572e-35 0)
(-8.31895e-35 1.13189e-35 0)
(-7.23778e-35 -2.90038e-35 0)
(6.79672e-35 -2.69848e-35 0)
(6.79672e-35 2.69848e-35 0)
(-7.23778e-35 2.90038e-35 0)
(-8.31895e-35 -1.13189e-35 0)
(-1.46303e-35 -1.53572e-35 0)
(-3.81093e-36 -2.33216e-36 0)
(-5.14718e-37 -3.46597e-37 0)
(-7.75181e-38 -3.71492e-38 0)
(-1.72989e-38 3.28754e-41 0)
(-7.83961e-38 3.75007e-38 0)
(-5.2233e-37 3.50297e-37 0)
(-3.87874e-36 2.36557e-36 0)
(-1.50673e-35 1.56659e-35 0)
(-8.64762e-35 1.33e-35 0)
(-8.3112e-35 -1.60204e-35 0)
(-4.96307e-41 -3.14076e-35 0)
(8.31114e-35 -1.60201e-35 0)
(8.64727e-35 1.33022e-35 0)
(1.50294e-35 1.56528e-35 0)
(3.6681e-36 1.80151e-36 0)
(-9.39624e-38 8.31538e-38 0)
(-6.01769e-37 6.20882e-37 0)
(-1.73178e-36 3.8139e-36 0)
(-7.96629e-36 2.74031e-36 0)
(-6.75825e-36 -7.28942e-36 0)
(6.75825e-36 -7.28942e-36 0)
(7.96629e-36 2.7403e-36 0)
(1.73174e-36 3.8139e-36 0)
(6.01944e-37 6.21723e-37 0)
(9.14004e-38 1.00483e-37 0)
(1.47254e-38 1.15406e-38 0)
(1.72955e-39 1.33827e-39 0)
(-1.62089e-44 2.59688e-40 0)
(-1.72974e-39 1.33837e-39 0)
(-1.47275e-38 1.15418e-38 0)
(-9.14215e-38 1.00496e-37 0)
(-6.02153e-37 6.21854e-37 0)
(-1.73352e-36 3.81524e-36 0)
(-7.98123e-36 2.75198e-36 0)
(-6.85143e-36 -7.1876e-36 0)
(6.14137e-36 -6.65603e-36 0)
(6.14137e-36 6.65603e-36 0)
(-6.85143e-36 7.1876e-36 0)
(-7.98123e-36 -2.75198e-36 0)
(-1.73352e-36 -3.81524e-36 0)
(-6.02156e-37 -6.21852e-37 0)
(-9.14429e-38 -1.00483e-37 0)
(-1.49392e-38 -1.14098e-38 0)
(-3.52038e-39 1.14328e-41 0)
(-1.51238e-38 1.1528e-38 0)
(-9.29835e-38 1.01678e-37 0)
(-6.15111e-37 6.32054e-37 0)
(-1.80998e-36 3.90405e-36 0)
(-8.49e-36 3.27188e-36 0)
(-7.96629e-36 -4.00709e-36 0)
(-5.82284e-42 -7.83143e-36 0)
(7.96624e-36 -4.00704e-36 0)
(8.48984e-36 3.27214e-36 0)
(1.80824e-36 3.89817e-36 0)
(6.01375e-37 4.74628e-37 0)
(-1.60638e-38 1.6182e-38 0)
(-8.99149e-38 1.15488e-37 0)
(-1.73566e-37 6.63072e-37 0)
(-5.59328e-37 4.64768e-37 0)
(-4.62923e-37 -1.26596e-36 0)
(4.62923e-37 -1.26596e-36 0)
(5.59327e-37 4.64769e-37 0)
(1.7355e-37 6.63077e-37 0)
(8.98529e-38 1.15691e-37 0)
(1.50341e-38 1.97318e-38 0)
(2.61522e-39 2.37799e-39 0)
(3.20752e-40 2.857e-40 0)
(-3.34823e-45 5.71466e-41 0)
(-3.20791e-40 2.85722e-40 0)
(-2.61564e-39 2.37824e-39 0)
(-1.50383e-38 1.97347e-38 0)
(-8.98933e-38 1.1572e-37 0)
(-1.73879e-37 6.63362e-37 0)
(-5.61983e-37 4.67175e-37 0)
(-4.78286e-37 -1.24594e-36 0)
(3.70414e-37 -1.14786e-36 0)
(3.70414e-37 1.14786e-36 0)
(-4.78286e-37 1.24594e-36 0)
(-5.61983e-37 -4.67175e-37 0)
(-1.73879e-37 -6.63362e-37 0)
(-8.98937e-38 -1.1572e-37 0)
(-1.50425e-38 -1.97318e-38 0)
(-2.65634e-39 -2.34919e-39 0)
(-6.53567e-40 2.56717e-42 0)
(-2.69168e-39 2.37514e-39 0)
(-1.5327e-38 1.99859e-38 0)
(-9.21803e-38 1.17812e-37 0)
(-1.86257e-37 6.80688e-37 0)
(-6.36473e-37 5.62849e-37 0)
(-5.59327e-37 -7.00964e-37 0)
(-7.19644e-44 -1.36619e-36 0)
(5.5933e-37 -7.00959e-37 0)
(6.3655e-37 5.62848e-37 0)
(1.86936e-37 6.79221e-37 0)
(9.43581e-38 8.71377e-38 0)
(-2.41826e-39 2.9091e-39 0)
(-1.21988e-38 1.98465e-38 0)
(-1.57231e-38 1.09708e-37 0)
(-2.31642e-38 7.58554e-38 0)
(-1.77814e-38 -2.0954e-37 0)
(1.77814e-38 -2.0954e-37 0)
(2.3164e-38 7.58557e-38 0)
(1.57198e-38 1.09711e-37 0)
(1.21783e-38 1.98985e-38 0)
(2.19948e-39 3.56788e-39 0)
(4.0447e-40 4.46036e-40 0)
(5.13702e-41 5.53485e-41 0)
(-5.85647e-46 1.13414e-41 0)
(-5.13769e-41 5.5353e-41 0)
(-4.04542e-40 4.46088e-40 0)
(-2.20018e-39 3.56846e-39 0)
(-1.21849e-38 1.99042e-38 0)
(-1.57726e-38 1.09767e-37 0)
(-2.35752e-38 7.63074e-38 0)
(-2.00336e-38 -2.05917e-37 0)
(5.19192e-39 -1.8919e-37 0)
(5.19192e-39 1.8919e-37 0)
(-2.00336e-38 2.05917e-37 0)
(-2.35752e-38 -7.63074e-38 0)
(-1.57726e-38 -1.09767e-37 0)
(-1.2185e-38 -1.99042e-38 0)
(-2.20089e-39 -3.56788e-39 0)
(-4.11242e-40 -4.40318e-40 0)
(-1.04766e-40 5.18774e-43 0)
(-4.17039e-40 4.4546e-40 0)
(-2.24631e-39 3.61694e-39 0)
(-1.25368e-38 2.02948e-38 0)
(-1.75609e-38 1.12883e-37 0)
(-3.35012e-38 9.25827e-38 0)
(-2.3164e-38 -1.16556e-37 0)
(1.19723e-43 -2.26669e-37 0)
(2.31658e-38 -1.16556e-37 0)
(3.35253e-38 9.25705e-38 0)
(1.77694e-38 1.12552e-37 0)
(1.33221e-38 1.47701e-38 0)
(-2.96091e-40 4.53644e-40 0)
(-1.61878e-39 2.92531e-39 0)
(-1.42119e-39 1.59323e-38 0)
(1.11566e-39 1.08709e-38 0)
(1.18023e-39 -3.04513e-38 0)
(-1.18012e-39 -3.04512e-38 0)
(-1.11494e-39 1.08721e-38 0)
(1.42586e-39 1.5942e-38 0)
(1.61597e-39 2.99694e-39 0)
(3.07371e-40 5.58044e-40 0)
(5.89541e-41 7.19503e-41 0)
(7.68477e-42 9.1548e-42 0)
(-9.40757e-47 1.91455e-42 0)
(-7.68583e-42 9.15559e-42 0)
(-5.89654e-41 7.19594e-41 0)
(-3.0748e-40 5.58143e-40 0)
(-1.61698e-39 2.9979e-39 0)
(-1.43376e-39 1.59512e-38 0)
(1.05496e-39 1.0945e-38 0)
(8.64853e-40 -2.9884e-38 0)
(-2.85607e-39 -2.73813e-38 0)
(-2.85607e-39 2.73813e-38 0)
(8.64853e-40 2.9884e-38 0)
(1.05496e-39 -1.0945e-38 0)
(-1.43376e-39 -1.59512e-38 0)
(-1.61699e-39 -2.99789e-39 0)
(-3.0759e-40 -5.58043e-40 0)
(-5.99904e-41 -7.09849e-41 0)
(-1.56844e-41 8.8848e-44 0)
(-6.08746e-41 7.18516e-41 0)
(-3.14367e-40 5.66134e-40 0)
(-1.66806e-39 3.06068e-39 0)
(-1.68115e-39 1.64363e-38 0)
(-2.45728e-40 1.33748e-38 0)
(1.11495e-39 -1.70118e-38 0)
(3.66416e-44 -3.30185e-38 0)
(-1.11449e-39 -1.7012e-38 0)
(2.50745e-40 1.33713e-38 0)
(1.7231e-39 1.63762e-38 0)
(1.83069e-39 2.19719e-39 0)
(9.60553e-40 6.08292e-40 0)
(-8.27935e-41 -1.44092e-40 0)
(-8.01198e-41 2.13509e-39 0)
(4.11864e-40 1.4859e-39 0)
(3.70678e-40 -4.23111e-39 0)
(-3.69698e-40 -4.2303e-39 0)
(-4.04746e-40 1.49539e-39 0)
(1.35138e-40 2.21377e-39 0)
(2.03237e-40 4.26729e-40 0)
(4.01156e-41 8.19569e-41 0)
(7.92788e-42 1.08201e-41 0)
(1.05525e-42 1.40534e-42 0)
(-1.37022e-47 2.98673e-43 0)
(-1.05541e-42 1.40547e-42 0)
(-7.9295e-42 1.08216e-41 0)
(-4.01311e-41 8.19725e-41 0)
(-2.03379e-40 4.26879e-40 0)
(-1.36224e-40 2.21517e-39 0)
(3.96683e-40 1.50636e-39 0)
(3.28584e-40 -4.14686e-39 0)
(-5.81094e-40 -3.79252e-39 0)
(-5.81094e-40 3.79252e-39 0)
(3.28584e-40 4.14686e-39 0)
(3.96683e-40 -1.50636e-39 0)
(-1.36224e-40 -2.21517e-39 0)
(-2.0338e-40 -4.26878e-40 0)
(-4.01467e-41 -8.19568e-41 0)
(-8.07274e-42 -1.06695e-41 0)
(-2.15509e-42 1.40268e-44 0)
(-8.196e-42 1.08045e-41 0)
(-4.10753e-41 8.3196e-41 0)
(-2.10224e-40 4.36291e-40 0)
(-1.68268e-40 2.28616e-39 0)
(2.34648e-40 1.84973e-39 0)
(4.04755e-40 -2.37079e-39 0)
(7.19096e-45 -4.59426e-39 0)
(-4.04672e-40 -2.37085e-39 0)
(-2.33819e-40 1.849e-39 0)
(1.7498e-40 2.2762e-39 0)
(2.36316e-40 3.09396e-40 0)
(2.12966e-38 -3.88969e-39 0)
(1.89135e-39 -4.24314e-39 0)
(5.49883e-40 -2.66954e-40 0)
(1.28156e-40 1.33834e-40 0)
(6.47922e-41 -5.50654e-40 0)
(-5.70203e-41 -5.4611e-40 0)
(-6.44741e-41 1.91081e-40 0)
(1.37942e-41 2.85517e-40 0)
(2.47729e-41 5.62945e-41 0)
(5.01256e-42 1.1074e-41 0)
(1.01282e-42 1.49134e-42 0)
(1.36998e-43 1.96906e-43 0)
(-1.85905e-48 4.24239e-44 0)
(-1.37019e-43 1.96924e-43 0)
(-1.01303e-42 1.49155e-42 0)
(-5.01459e-42 1.10762e-41 0)
(-2.47912e-41 5.63161e-41 0)
(-1.39308e-41 2.85716e-40 0)
(6.34989e-41 1.92624e-40 0)
(5.2516e-41 -5.34438e-40 0)
(-8.34739e-41 -4.87902e-40 0)
(-8.34739e-41 4.87902e-40 0)
(5.2516e-41 5.34438e-40 0)
(6.34989e-41 -1.92624e-40 0)
(-1.39308e-41 -2.85716e-40 0)
(-2.47914e-41 -5.63159e-41 0)
(-5.01667e-42 -1.1074e-41 0)
(-1.0319e-42 -1.46994e-42 0)
(-2.7993e-43 2.01201e-45 0)
(-1.04809e-42 1.4891e-42 0)
(-5.13702e-42 1.12473e-41 0)
(-2.56633e-41 5.76101e-41 0)
(-1.79116e-41 2.95278e-40 0)
(4.388e-41 2.37648e-40 0)
(6.45307e-41 -3.06726e-40 0)
(1.18449e-45 -5.93581e-40 0)
(-6.45177e-41 -3.06736e-40 0)
(-4.3758e-41 2.37523e-40 0)
(1.88727e-41 2.93805e-40 0)
(2.93992e-41 4.04474e-41 0)
(3.70827e-37 9.37323e-38 0)
(4.03232e-38 -3.07112e-38 0)
(5.08544e-39 -3.83053e-39 0)
(4.86997e-40 -3.16957e-40 0)
(5.18312e-41 -9.46536e-41 0)
(-3.58377e-42 -6.93247e-41 0)
(-7.93851e-42 2.32432e-41 0)
(1.47548e-42 3.51881e-41 0)
(2.87478e-42 7.06115e-42 0)
(5.92807e-43 1.41459e-42 0)
(1.21785e-43 1.93427e-43 0)
(1.66969e-44 2.58603e-44 0)
(-2.06139e-49 5.63057e-45 0)
(-1.6699e-44 2.5863e-44 0)
(-1.21805e-43 1.93458e-43 0)
(-5.9295e-43 1.41493e-42 0)
(-2.87545e-42 7.06467e-42 0)
(-1.47011e-42 3.52241e-41 0)
(8.1131e-42 2.35863e-41 0)
(6.69286e-42 -6.58464e-41 0)
(-1.03e-41 -6.00288e-41 0)
(-1.03e-41 6.00288e-41 0)
(6.69286e-42 6.58464e-41 0)
(8.1131e-42 -2.35863e-41 0)
(-1.47011e-42 -3.52241e-41 0)
(-2.87547e-42 -7.06464e-42 0)
(-5.93208e-43 -1.41463e-42 0)
(-1.2413e-43 -1.90589e-43 0)
(-3.41312e-44 2.69032e-46 0)
(-1.26123e-43 1.9313e-43 0)
(-6.07855e-43 1.43735e-42 0)
(-2.98007e-42 7.23218e-42 0)
(-1.9387e-42 3.64424e-41 0)
(5.84986e-42 2.92077e-41 0)
(8.23722e-42 -3.79062e-41 0)
(1.70622e-46 -7.32775e-41 0)
(-8.23542e-42 -3.79079e-41 0)
(-5.83366e-42 2.91888e-41 0)
(2.06304e-42 3.62403e-41 0)
(3.46158e-42 5.03804e-42 0)
(3.3678e-34 -1.79352e-33 0)
(1.03511e-33 -5.25312e-34 0)
(2.17047e-34 -3.62378e-34 0)
(7.24147e-35 -6.05906e-35 0)
(1.13324e-35 -9.87826e-36 0)
(1.88789e-36 -1.19806e-36 0)
(2.36983e-37 -1.43228e-37 0)
(2.95343e-38 -1.49016e-38 0)
(3.17055e-39 -1.5188e-39 0)
(3.30391e-40 -1.46723e-40 0)
(3.02321e-41 -9.40784e-42 0)
(3.36395e-42 7.41173e-42 0)
(1.45364e-42 -2.18795e-42 0)
(-3.49918e-43 -5.4543e-42 0)
(-7.54205e-43 2.29065e-42 0)
(1.34637e-43 3.37701e-42 0)
(2.80204e-43 7.59889e-43 0)
(6.47794e-44 1.64096e-43 0)
(1.4188e-44 2.46999e-44 0)
(2.15695e-45 3.51768e-45 0)
(3.08717e-46 4.21676e-46 0)
(3.71774e-47 4.78673e-47 0)
(4.23245e-48 4.88633e-48 0)
(4.75162e-49 4.32092e-49 0)
(4.77544e-49 -4.3574e-49 0)
(4.25681e-48 -4.92506e-48 0)
(3.73441e-47 -4.82919e-47 0)
(3.08995e-46 -4.25969e-46 0)
(2.13637e-45 -3.55881e-45 0)
(1.3667e-44 -2.50464e-44 0)
(5.5307e-44 -1.66798e-43 0)
(1.35009e-43 -7.75572e-43 0)
(-1.908e-42 -3.44203e-42 0)
(-2.76344e-41 -1.92132e-42 0)
(-3.33505e-40 1.49366e-41 0)
(-3.98718e-39 1.46676e-40 0)
(-4.46318e-38 1.6132e-39 0)
(-4.90174e-37 1.60181e-38 0)
(-4.89068e-36 1.26006e-37 0)
(-4.87047e-35 1.06265e-37 0)
(-4.13572e-34 -2.26394e-35 0)
(-3.62748e-33 -6.32223e-34 0)
(-2.21337e-32 -1.08609e-32 0)
(-1.50564e-31 -1.2994e-31 0)
(7.59334e-34 -8.85615e-31 0)
(1.50887e-31 -1.29981e-31 0)
(9.29773e-33 -1.01687e-32 0)
(1.58659e-32 -3.63828e-33 0)
(2.57359e-33 -2.75643e-33 0)
(5.71726e-34 -4.04198e-34 0)
(7.78331e-35 -6.32971e-35 0)
(1.14782e-35 -7.27691e-36 0)
(1.35022e-36 -8.49032e-37 0)
(1.59669e-37 -8.57894e-38 0)
(1.65659e-38 -8.5737e-39 0)
(1.68321e-39 -7.83809e-40 0)
(1.56701e-40 -6.96484e-41 0)
(1.42062e-41 -5.21036e-42 0)
(1.28204e-42 -6.32389e-43 0)
(7.40006e-44 -4.454e-43 0)
(-4.25885e-44 1.68859e-43 0)
(9.23123e-45 2.53758e-43 0)
(1.84684e-44 5.77478e-44 0)
(4.31777e-45 1.25601e-44 0)
(9.59466e-46 1.905e-45 0)
(1.47582e-46 2.7253e-46 0)
(2.13542e-47 3.28202e-47 0)
(2.59558e-48 3.73522e-48 0)
(2.97885e-49 3.82255e-49 0)
(3.37205e-50 3.38485e-50 0)
(3.42887e-50 -3.39629e-50 0)
(3.06575e-49 -3.82538e-49 0)
(2.71865e-48 -3.72294e-48 0)
(2.31056e-47 -3.24237e-47 0)
(1.72269e-46 -2.6427e-46 0)
(1.30624e-45 -1.75787e-45 0)
(9.08244e-45 -1.01998e-44 0)
(8.28811e-44 -2.23522e-44 0)
(8.49587e-43 2.47642e-43 0)
(1.06365e-41 6.57819e-42 0)
(1.29391e-40 8.75859e-41 0)
(1.51906e-39 1.06464e-39 0)
(1.67385e-38 1.24472e-38 0)
(1.78942e-37 1.3134e-37 0)
(1.7524e-36 1.2039e-36 0)
(1.67894e-35 5.74843e-36 0)
(1.39469e-34 -8.36964e-35 0)
(1.15076e-33 -3.59587e-33 0)
(6.8781e-33 -7.2284e-32 0)
(4.13541e-32 -1.04875e-30 0)
(1.5233e-32 -1.04421e-29 0)
(-2.3672e-32 -1.05193e-30 0)
(1.44751e-31 -9.09438e-32 0)
(1.72302e-31 -9.99285e-33 0)
(1.99695e-32 -7.45925e-34 0)
(4.24607e-33 -4.19334e-35 0)
(5.20555e-34 -1.60219e-36 0)
(7.45294e-35 -2.15769e-38 0)
(8.3597e-36 4.31298e-39 0)
(9.68084e-37 6.06954e-40 0)
(9.77684e-38 6.19761e-41 0)
(9.7833e-39 5.36556e-42 0)
(8.95442e-40 4.64674e-43 0)
(8.00272e-41 7.79133e-44 0)
(6.70991e-42 -7.91137e-45 0)
(5.44115e-43 -2.73793e-44 0)
(3.88425e-44 1.15818e-44 0)
(3.75051e-45 1.71794e-44 0)
(1.47148e-45 3.95309e-45 0)
(3.0953e-46 8.70029e-46 0)
(6.67514e-47 1.33333e-46 0)
(1.02375e-47 1.92466e-47 0)
(1.48203e-48 2.33638e-48 0)
(1.80643e-49 2.67656e-49 0)
(2.07828e-50 2.75527e-50 0)
(2.48898e-51 2.44909e-51 0)
(4.62343e-51 -2.48278e-51 0)
(5.8152e-50 -2.79793e-50 0)
(7.797e-49 -2.73472e-49 0)
(1.08361e-47 -2.41547e-48 0)
(1.51867e-46 -2.03375e-47 0)
(2.15201e-45 -1.48337e-46 0)
(2.99529e-44 -1.07826e-45 0)
(4.10576e-43 -6.79656e-45 0)
(5.42327e-42 -5.57514e-44 0)
(6.96667e-41 -5.17056e-43 0)
(8.51817e-40 -6.4539e-42 0)
(1.01059e-38 -7.84683e-41 0)
(1.12519e-37 -9.06172e-40 0)
(1.22084e-36 -9.06128e-39 0)
(1.21212e-35 -6.76911e-38 0)
(1.18733e-34 1.85136e-37 0)
(1.00591e-33 2.08659e-35 0)
(8.62362e-33 5.65223e-34 0)
(5.33176e-32 1.02856e-32 0)
(3.508e-31 1.40447e-31 0)
(1.76161e-31 1.32691e-30 0)
(-1.54382e-31 1.40211e-31 0)
(1.39494e-32 -8.89701e-32 0)
(1.34717e-32 -7.64869e-33 0)
(2.24064e-33 1.88262e-33 0)
(5.10719e-34 3.52924e-34 0)
(7.09327e-35 6.1046e-35 0)
(1.06328e-35 7.21117e-36 0)
(1.26515e-36 8.49865e-37 0)
(1.50963e-37 8.61138e-38 0)
(1.57692e-38 8.61103e-39 0)
(1.61115e-39 7.86764e-40 0)
(1.50729e-40 7.01838e-41 0)
(1.36784e-41 5.87293e-42 0)
(1.16419e-42 4.76436e-43 0)
(9.576e-44 3.5011e-44 0)
(7.29119e-45 3.5539e-45 0)
(6.05585e-46 1.36941e-45 0)
(1.20214e-46 2.85378e-46 0)
(2.17023e-47 6.09762e-47 0)
(4.43314e-48 9.31427e-48 0)
(6.73406e-49 1.34414e-48 0)