/*--------------------------------*- C++ -*----------------------------------*\
| =========                 |                                                 |
| \\      /  F ield         | OpenFOAM: The Open Source CFD Toolbox           |
|  \\    /   O peration     | Version:  2.4.0                                 |
|   \\  /    A nd           | Web:      www.OpenFOAM.org                      |
|    \\/     M anipulation  |                                                 |
\*---------------------------------------------------------------------------*/
FoamFile
{
    version     2.0;
    format      ascii;
    class       surfaceScalarField;
    location    "0.2";
    object      phi;
}
// * * * * * * * * * * * * * * * * * * * * * * * * * * * * * * * * * * * * * //

dimensions      [0 3 -1 0 0 0 0];

internalField   nonuniform List<scalar> 
15214
(
4.3164e-40
3.06814e-42
3.0459e-39
3.00985e-41
4.08032e-39
6.00941e-40
2.65037e-37
5.46394e-40
1.92552e-42
-1.1806e-39
-2.65014e-37
-1.18046e-39
-3.62854e-39
5.49563e-40
4.32933e-40
6.34079e-40
6.71785e-39
6.61296e-40
2.6955e-37
1.15354e-39
2.68535e-37
-6.00798e-40
-2.57457e-37
-1.727e-39
3.49954e-39
5.46394e-40
2.6549e-37
1.14733e-39
4.10291e-39
-5.49573e-40
3.04787e-39
-6.01093e-40
4.31095e-40
-3.01118e-41
2.06793e-41
-3.02716e-42
1.83888e-42
-1.41981e-43
8.66478e-44
-9.99238e-45
5.83587e-45
-4.45437e-46
2.60641e-46
-2.52952e-47
1.44641e-47
-1.05919e-48
1.20864e-48
-4.92839e-50
1.44917e-47
4.93694e-50
2.61216e-46
1.06111e-48
5.8497e-45
2.53444e-47
8.6894e-44
4.46445e-46
1.84445e-42
1.00166e-44
2.07601e-41
1.42401e-43
4.32847e-40
3.0367e-42
3.0667e-39
3.02438e-41
4.51316e-39
6.03977e-40
2.68104e-37
5.76637e-40
4.51316e-39
-5.76637e-40
3.0667e-39
-6.03977e-40
4.32847e-40
-3.02438e-41
2.07601e-41
-3.0367e-42
1.84445e-42
-1.42401e-43
8.6894e-44
-1.00166e-44
5.84968e-45
-4.46499e-46
2.61066e-46
-2.60131e-47
1.25014e-47
-1.24653e-47
-1.20427e-48
-8.28081e-47
2.02382e-48
-1.1907e-45
-6.38754e-47
3.51853e-41
-3.01474e-42
2.68108e-40
-3.36137e-41
4.50511e-39
-6.63988e-40
8.3379e-39
-6.02853e-40
1.73932e-43
1.30388e-39
-8.33581e-39
1.30373e-39
-4.46803e-39
-6.06272e-40
3.53363e-41
-7.00888e-40
4.74015e-39
-7.31394e-40
1.28783e-38
-1.27354e-39
8.64309e-39
6.63836e-40
-3.52742e-39
1.90673e-39
3.05365e-40
-6.02853e-40
8.37514e-39
-1.26684e-39
4.5072e-39
6.06283e-40
2.68288e-40
6.64151e-40
3.51708e-41
3.36325e-41
1.91639e-42
3.26769e-42
1.65535e-43
1.52335e-43
8.37833e-45
1.05017e-44
5.57997e-46
4.64992e-46
2.61214e-47
2.60854e-47
1.44507e-48
1.08628e-48
1.24923e-49
5.0164e-50
1.44793e-48
-5.02502e-50
2.61808e-47
-1.08823e-48
5.59377e-46
-2.61355e-47
8.403e-45
-4.66026e-46
1.66067e-43
-1.05267e-44
1.9242e-42
-1.52774e-43
3.53279e-41
-3.27773e-42
2.70037e-40
-3.37743e-41
4.54044e-39
-6.67266e-40
8.60793e-39
-6.36627e-40
4.54044e-39
6.36627e-40
2.70037e-40
6.67266e-40
3.53279e-41
3.37743e-41
1.92421e-42
3.27773e-42
1.66067e-43
1.52774e-43
8.40298e-45
1.05267e-44
5.59007e-46
4.65193e-46
2.33063e-47
1.57065e-47
-3.66795e-47
-1.78006e-46
-3.51401e-47
-1.3077e-45
3.84544e-47
-1.89856e-44
-1.01277e-45
4.38187e-42
-2.86815e-43
1.83545e-41
-3.2246e-42
1.96816e-40
-5.39846e-41
3.54849e-40
-4.81157e-41
2.83305e-44
1.05654e-40
-3.54555e-40
1.05639e-40
-1.92186e-40
-4.84445e-41
4.39174e-42
-5.75241e-41
2.11101e-40
-6.04523e-41
5.56055e-40
-1.02743e-40
3.77832e-40
5.39688e-41
-1.35021e-40
1.5377e-40
2.30115e-41
-4.81157e-41
3.59505e-40
-1.021e-40
1.9711e-40
4.84456e-41
1.83828e-41
5.40015e-41
4.36483e-42
3.2265e-42
2.65598e-43
3.13081e-43
2.69087e-44
1.5792e-44
1.42108e-45
1.08599e-45
1.0071e-46
5.04939e-47
4.7983e-48
2.83271e-48
2.72567e-49
1.22026e-49
2.36965e-50
5.63934e-51
2.73113e-49
-5.6493e-51
4.80956e-48
-1.22251e-49
1.0097e-46
-2.83835e-48
1.4256e-45
-5.061e-47
2.70046e-44
-1.0887e-45
2.66918e-43
-1.58396e-44
4.39031e-42
-3.14116e-43
1.86213e-41
-3.2412e-42
2.01207e-40
-5.42987e-41
3.73469e-40
-5.13568e-41
2.01207e-40
5.13568e-41
1.86213e-41
5.42987e-41
4.39031e-42
3.2412e-42
2.66918e-43
3.14116e-43
2.70045e-44
1.58396e-44
1.42521e-45
1.08804e-45
9.44524e-47
3.75693e-47
-4.58955e-47
-1.60778e-46
-6.8489e-46
-2.86401e-45
-6.34011e-46
-2.10703e-44
6.88302e-46
-3.14271e-43
-1.63874e-44
2.98388e-43
-4.56134e-44
9.20847e-43
-4.35206e-43
6.58816e-42
-7.05035e-42
1.15132e-41
-6.26849e-42
2.22192e-45
1.3804e-41
-1.14911e-41
1.38016e-41
-6.27137e-42
-6.31873e-42
2.98969e-43
-7.53327e-42
7.23436e-42
-7.92314e-42
1.84002e-41
-1.34169e-41
1.27507e-41
7.0477e-42
-3.6854e-42
2.00725e-41
1.23968e-42
-6.26848e-42
1.1832e-41
-1.33187e-41
6.61029e-42
6.31891e-42
9.23038e-43
7.05287e-42
2.96865e-43
4.35323e-43
1.99237e-44
4.77617e-44
2.10479e-45
2.49125e-45
1.17091e-46
1.811e-46
8.41575e-48
8.56448e-48
4.14319e-49
4.92109e-49
2.36971e-50
2.13391e-50
2.10643e-51
9.9499e-52
2.37458e-50
-9.96751e-52
4.1532e-49
-2.13788e-50
8.43834e-48
-4.93103e-49
1.17482e-46
-8.58478e-48
2.11279e-45
-1.81571e-46
2.00323e-44
-2.49932e-45
2.98852e-43
-4.79342e-44
9.4084e-43
-4.37632e-43
6.887e-42
-7.09813e-42
1.2454e-41
-6.70611e-42
6.887e-42
6.7061e-42
9.4084e-43
7.09813e-42
2.98852e-43
4.37632e-43
2.00323e-44
4.79342e-44
2.11232e-45
2.4988e-45
1.11435e-46
1.72921e-46
-9.32961e-47
-1.6412e-46
-7.95593e-46
-2.17947e-45
-1.08504e-44
-3.85225e-44
-1.00571e-44
-2.8865e-43
1.0837e-44
-4.34886e-42
-2.26311e-43
2.62084e-44
-3.03279e-44
5.72409e-44
-3.73211e-44
1.5475e-43
-5.0727e-43
2.34304e-43
-4.44779e-43
2.17549e-46
9.86769e-43
-2.32253e-43
9.86582e-43
-1.26822e-43
-4.48612e-43
2.62927e-44
-5.42004e-43
1.87874e-43
-5.71944e-43
4.15314e-43
-9.57076e-43
3.19369e-43
5.04433e-43
5.72638e-45
1.43139e-42
8.52879e-44
-4.44596e-43
2.62405e-43
-9.49237e-43
1.5678e-43
4.48628e-43
5.73876e-44
5.04867e-43
2.60873e-44
3.35548e-44
1.8273e-45
3.80781e-45
2.05453e-46
2.08772e-46
1.16542e-47
1.53927e-47
8.58394e-49
7.51736e-49
4.26528e-50
4.34789e-50
2.46281e-51
1.92645e-51
2.1963e-52
9.00817e-53
2.4679e-51
-9.0244e-53
4.27572e-50
-1.93009e-51
8.60741e-49
-4.3569e-50
1.16944e-47
-7.53569e-49
2.06269e-46
-1.54342e-47
1.83809e-45
-2.0948e-46
2.6281e-44
-3.82245e-45
5.90077e-44
-3.37481e-44
1.81016e-43
-5.08464e-43
2.93294e-43
-4.78344e-43
1.81016e-43
4.78344e-43
5.90077e-44
5.08464e-43
2.6281e-44
3.3748e-44
1.83772e-45
3.82213e-45
1.98899e-46
2.02483e-46
-8.32768e-47
-1.01803e-46
-1.62756e-45
-2.38657e-45
-1.28401e-44
-3.03885e-44
-1.79878e-43
-5.53319e-43
-1.67233e-43
-4.23301e-42
1.78776e-43
-6.64328e-41
-3.35162e-42
5.35571e-46
-4.05699e-43
4.2648e-45
-5.58226e-44
1.92237e-45
-8.05583e-44
1.59075e-46
-4.18653e-44
2.20289e-47
8.7328e-44
7.33945e-47
8.75883e-44
1.06449e-46
-3.97942e-44
1.70625e-45
-4.81975e-44
3.35075e-45
-5.08855e-44
3.48275e-45
-8.49592e-44
5.07473e-45
4.47813e-44
6.66552e-45
1.27035e-43
5.0226e-45
-3.94095e-44
1.89724e-45
-8.4211e-44
1.84994e-45
3.97945e-44
3.20706e-45
4.48235e-44
1.69191e-45
3.03263e-45
1.24662e-46
3.6326e-46
1.43394e-47
2.0272e-47
8.39102e-49
1.53038e-48
6.23663e-50
7.54675e-50
3.16238e-51
4.40526e-51
1.83319e-52
1.95965e-52
1.65673e-53
9.18104e-54
1.83703e-52
-9.19753e-54
3.17025e-51
-1.96337e-52
6.25409e-50
-4.41444e-51
8.42081e-49
-7.56539e-50
1.43986e-47
-1.53459e-48
1.25438e-46
-2.0343e-47
1.7054e-45
-3.64714e-46
3.31726e-45
-3.05137e-45
3.4155e-45
-4.51663e-44
3.38366e-45
-4.24608e-44
3.4155e-45
4.24608e-44
3.31724e-45
4.51663e-44
1.70511e-45
3.05121e-45
1.20558e-46
3.61521e-46
-8.21139e-47
-5.16864e-47
-1.25047e-45
-1.21197e-45
-2.16452e-44
-2.49129e-44
-1.73651e-43
-3.2269e-43
-2.45925e-42
-5.96444e-42
-2.29168e-42
-4.78242e-41
2.42248e-42
-7.58954e-40
-3.85219e-41
-1.58021e-44
-4.8435e-42
1.56835e-44
-7.42636e-43
3.2622e-45
-5.46525e-43
1.03682e-45
-3.86226e-44
1.11338e-46
1.46631e-45
4.95535e-46
5.53311e-45
2.72639e-46
-2.62942e-45
1.24886e-46
-3.18943e-45
-3.57641e-47
-3.37306e-45
-4.86397e-46
-5.59132e-45
-1.2299e-46
2.95296e-45
6.83851e-46
8.35853e-45
3.50444e-46
-2.58433e-45
-3.38249e-46
-5.53874e-45
-1.2845e-46
2.6114e-45
2.17512e-46
2.95601e-45
1.23737e-46
2.08619e-46
9.27361e-48
2.54993e-47
1.09234e-48
1.46687e-48
6.45984e-50
1.11695e-49
4.84686e-51
5.61949e-51
2.47105e-52
3.29155e-52
1.43576e-53
1.48349e-53
1.29971e-54
6.95389e-55
1.43877e-53
-6.96649e-55
2.47723e-52
-1.48633e-53
4.86053e-51
-3.2985e-52
6.48311e-50
-5.6336e-51
1.09694e-48
-1.1201e-49
9.33334e-48
-1.47216e-48
1.24765e-46
-2.56054e-47
2.25684e-46
-2.09974e-46
-1.41154e-47
-2.98003e-45
-2.46663e-46
-2.79429e-45
-1.4124e-47
2.79429e-45
2.2551e-46
2.97996e-45
1.2086e-46
2.08217e-46
-5.70334e-47
-1.00512e-47
-1.33804e-45
-8.19899e-46
-1.75156e-44
-1.3958e-44
-3.12255e-43
-2.95872e-43
-2.55402e-42
-3.90641e-42
-3.77547e-41
-7.59677e-41
-3.53359e-41
-6.40237e-40
3.69713e-41
-1.08754e-38
-5.26504e-40
-2.0019e-43
-6.71332e-41
2.53054e-43
-8.62073e-42
4.77629e-44
-5.98721e-42
2.02605e-44
-3.90438e-43
1.46031e-45
-4.4204e-44
2.04323e-46
-2.027e-45
3.07816e-47
-3.71283e-46
8.27927e-48
-2.40792e-46
-7.0635e-48
-2.45948e-46
-4.21775e-47
-4.06108e-46
-1.5949e-47
2.14524e-46
4.46016e-47
6.06985e-46
2.08597e-47
-1.87491e-46
-2.86079e-47
-4.02127e-46
-1.23449e-47
1.8953e-46
1.28005e-47
2.14757e-46
7.48712e-48
1.5346e-47
5.77213e-49
1.91944e-48
6.86434e-50
1.11598e-49
4.13781e-51
8.57693e-51
3.11554e-52
4.3409e-52
1.60824e-53
2.54824e-53
9.34892e-55
1.151e-54
8.52766e-56
5.38646e-56
9.36864e-55
-5.39617e-56
1.61229e-53
-1.1532e-54
3.12444e-52
-2.55363e-53
4.15296e-51
-4.35184e-52
6.89388e-50
-8.60126e-51
5.81037e-49
-1.12007e-49
7.5516e-48
-1.92758e-48
1.33084e-47
-1.5449e-47
-5.44341e-48
-2.16564e-46
-2.34356e-47
-2.0294e-46
-5.52929e-48
2.02919e-46
1.15561e-47
2.16105e-46
-3.17753e-47
3.97416e-48
-6.71515e-46
-2.31877e-46
-1.366e-44
-5.4135e-45
-1.8173e-43
-9.33534e-44
-3.28499e-42
-2.00686e-42
-2.80137e-41
-2.76873e-41
-4.20206e-40
-5.57543e-40
-3.94632e-40
-5.37922e-39
4.04997e-40
-9.24588e-38
-4.59265e-39
-9.08582e-43
-6.27442e-40
3.76464e-42
-1.09994e-40
7.4194e-43
-8.62912e-41
3.11284e-43
-5.28192e-42
2.15329e-44
-5.8678e-43
2.43222e-45
-3.06949e-44
1.39014e-46
-2.26055e-45
1.06476e-47
-1.20744e-46
-5.1816e-50
-2.10895e-47
-2.91887e-48
-2.4875e-47
-1.19327e-48
1.30049e-47
2.8947e-48
3.67768e-47
1.31376e-48
-1.13342e-47
-1.98832e-48
-2.43592e-47
-8.81173e-49
1.14626e-47
8.02896e-49
1.30327e-47
4.74265e-49
9.56719e-49
3.69287e-50
1.2073e-49
4.42979e-51
7.15512e-51
2.68803e-52
5.51552e-52
2.02832e-53
2.82649e-53
1.05035e-54
1.65924e-54
6.09622e-56
7.55157e-56
5.56276e-57
3.52742e-57
6.10904e-56
-3.53379e-57
1.053e-54
-7.56603e-56
2.03412e-53
-1.66277e-54
2.69792e-52
-2.83367e-53
4.44901e-51
-5.53136e-52
3.7177e-50
-7.18172e-51
4.78422e-49
-1.21253e-49
8.35293e-49
-9.63327e-49
-4.46033e-49
-1.31465e-47
-1.70736e-48
-1.23035e-47
-1.41127e-48
1.21333e-47
-1.89628e-47
9.30632e-48
-4.53685e-46
-9.72821e-47
-7.83412e-45
-2.01796e-45
-1.64491e-43
-4.83592e-44
-2.22792e-42
-8.46136e-43
-4.2332e-41
-1.92108e-41
-3.74991e-40
-2.75922e-40
-6.05905e-39
-6.14988e-39
-5.72401e-39
-6.75864e-38
5.80138e-39
-1.32457e-36
-6.02603e-38
3.59155e-41
-8.1791e-39
7.66102e-41
-9.36194e-40
9.84464e-42
-6.44627e-40
3.35172e-42
-3.83831e-41
2.24741e-43
-3.85028e-42
2.42732e-44
-1.96331e-43
1.35518e-45
-1.37582e-44
9.85181e-47
-6.45187e-46
4.83007e-48
-3.7536e-47
1.11079e-49
-3.36352e-48
-5.67059e-50
8.70067e-49
1.62388e-49
2.66882e-48
7.29197e-50
-8.22926e-49
-1.13053e-49
-1.76948e-48
-5.0527e-50
8.32297e-49
4.44272e-50
9.47261e-49
2.63939e-50
7.01748e-50
2.09319e-51
8.92942e-51
2.51779e-52
5.32787e-52
1.54688e-53
4.11442e-53
1.16684e-54
2.11569e-54
6.08869e-56
1.23977e-55
3.52636e-57
5.64598e-57
3.23069e-58
2.62727e-58
3.53376e-57
-2.63199e-58
6.104e-56
-5.65675e-57
1.17018e-54
-1.2424e-55
1.55256e-53
-2.12107e-54
2.52867e-52
-4.12628e-53
2.10697e-51
-5.34787e-52
2.66154e-50
-8.96871e-51
4.5885e-50
-7.0674e-50
-3.64978e-50
-9.55881e-49
-3.3498e-49
-8.99396e-49
-5.99074e-48
7.29772e-49
-1.2266e-46
-2.8755e-48
-2.82613e-45
-9.88889e-47
-4.95172e-44
-2.0398e-45
-1.05198e-42
-4.98421e-44
-1.48196e-41
-9.05608e-43
-2.88546e-40
-2.27144e-41
-2.80688e-39
-4.45453e-40
-4.64495e-38
-1.3755e-38
-4.40232e-38
-3.14811e-37
4.26527e-38
-6.22828e-36
-3.07606e-37
-3.44056e-40
-2.42562e-42
-2.47172e-39
-2.44985e-41
-3.33311e-39
-5.42998e-40
-2.39545e-37
-4.98497e-40
-1.95733e-48
1.0685e-39
2.39545e-37
1.0685e-39
3.33311e-39
-4.98497e-40
2.47175e-39
-5.42998e-40
3.43543e-40
-2.45008e-41
1.49896e-41
-2.3944e-42
1.29754e-42
-1.02605e-43
5.2395e-44
-7.00254e-45
-5.23953e-44
-5.7357e-46
-1.29755e-42
-7.00257e-45
-1.49897e-41
-1.02606e-43
-3.43547e-40
-2.39441e-42
-2.4718e-39
-2.45011e-41
-3.33441e-39
-5.43005e-40
-2.3956e-37
-4.986e-40
-3.44845e-40
1.0661e-39
2.37059e-37
1.0439e-39
-3.44845e-40
-1.0439e-39
-2.3956e-37
-1.0661e-39
-3.33441e-39
4.986e-40
-2.4718e-39
5.43005e-40
-3.43547e-40
2.45011e-41
-1.49934e-41
2.3944e-42
-1.35388e-42
1.02318e-43
-1.35724e-42
-1.50581e-47
-1.50458e-41
-1.02589e-43
-3.44788e-40
-2.4011e-42
-2.48549e-39
-2.45967e-41
-3.66291e-39
-5.45296e-40
-2.41687e-37
-5.20699e-40
-1.19116e-39
5.47704e-40
1.19116e-39
1.0908e-39
2.41687e-37
5.47704e-40
3.66169e-39
-5.20706e-40
2.4778e-39
-5.45358e-40
-2.62005e-41
-2.79423e-41
2.39785e-42
-2.1779e-40
2.73606e-41
-4.05133e-39
5.99979e-40
-7.55467e-39
5.501e-40
-8.91459e-50
-1.18014e-39
7.55467e-39
-1.18014e-39
4.05133e-39
5.501e-40
2.17793e-40
5.99979e-40
2.79198e-41
2.73661e-41
1.38799e-42
2.58138e-42
1.16319e-43
1.10008e-43
5.06415e-45
7.35084e-45
-5.06418e-45
5.98348e-46
-1.1632e-43
7.35087e-45
-1.38801e-42
1.10008e-43
-2.79202e-41
2.58139e-42
-2.17798e-40
2.73664e-41
-4.05144e-39
5.99986e-40
-7.55607e-39
5.5021e-40
-2.80365e-41
-1.17756e-39
7.33549e-39
-1.15267e-39
-2.80365e-41
1.15267e-39
-7.55607e-39
1.17756e-39
-4.05144e-39
-5.5021e-40
-2.17798e-40
-5.99986e-40
-2.79202e-41
-2.73664e-41
-1.38836e-42
-2.58138e-42
-1.2176e-43
-1.09708e-43
-1.22079e-43
1.55187e-47
-1.39342e-42
1.09991e-43
-2.80311e-41
2.58841e-42
-2.1907e-40
2.74691e-41
-4.07797e-39
6.02457e-40
-7.74582e-39
5.74988e-40
-3.86018e-39
-6.05053e-40
3.86018e-39
-1.20513e-39
7.74582e-39
-6.05053e-40
4.07784e-39
5.74993e-40
2.18124e-40
6.02409e-40
2.27157e-41
-3.51282e-42
2.27578e-43
-1.49518e-41
2.62762e-42
-1.77523e-40
4.8838e-41
-3.23328e-40
4.40431e-41
-7.62109e-50
-9.57682e-41
3.23328e-40
-9.57682e-41
1.77523e-40
4.40431e-41
1.49517e-41
4.8838e-41
3.49884e-42
2.62816e-42
1.93199e-43
2.46718e-43
1.9012e-44
1.13971e-44
8.57434e-46
7.5784e-46
-8.5744e-46
6.48929e-47
-1.90122e-44
7.57843e-46
-1.93202e-43
1.13972e-44
-3.49891e-42
2.46719e-43
-1.49527e-41
2.6282e-42
-1.77542e-40
4.88388e-41
-3.23522e-40
4.40545e-41
-3.51792e-42
-9.55207e-41
3.08182e-40
-9.31286e-41
-3.51792e-42
9.31286e-41
-3.23522e-40
9.55207e-41
-1.77542e-40
-4.40545e-41
-1.49527e-41
-4.88388e-41
-3.49891e-42
-2.6282e-42
-1.93265e-43
-2.46718e-43
-1.99379e-44
-1.13646e-44
-1.99954e-44
1.67719e-48
-1.94122e-43
1.13954e-44
-3.517e-42
2.47441e-43
-1.51268e-41
2.63884e-42
-1.80847e-40
4.90741e-41
-3.34956e-40
4.64352e-41
-1.65895e-40
-4.93223e-41
1.65895e-40
-9.8171e-41
3.34956e-40
-4.93222e-41
1.80846e-40
4.64357e-41
1.5138e-41
4.9069e-41
2.17733e-42
-2.40042e-43
3.4842e-44
-7.52174e-43
3.54592e-43
-5.97039e-42
6.38122e-42
-1.05754e-41
5.7423e-42
-7.49585e-51
-1.25179e-41
1.05754e-41
-1.25179e-41
5.97039e-42
5.7423e-42
7.52151e-43
6.38122e-42
2.38809e-43
3.54713e-43
1.45203e-44
3.77783e-44
1.48735e-45
1.80157e-45
7.06163e-47
1.2674e-46
-7.06169e-47
1.10233e-47
-1.48736e-45
1.26741e-46
-1.45206e-44
1.80158e-45
-2.38814e-43
3.77786e-44
-7.52227e-43
3.54719e-43
-5.97188e-42
6.38134e-42
-1.059e-41
5.74411e-42
-2.40302e-43
-1.248e-41
9.80865e-42
-1.21614e-41
-2.40302e-43
1.21614e-41
-1.059e-41
1.248e-41
-5.97188e-42
-5.74411e-42
-7.52227e-43
-6.38134e-42
-2.38815e-43
-3.54719e-43
-1.45258e-44
-3.77783e-44
-1.5637e-45
-1.79604e-45
-1.56848e-45
2.91804e-49
-1.45964e-44
1.80126e-45
-2.40226e-43
3.78992e-44
-7.65255e-43
3.56393e-43
-6.19609e-42
6.41732e-42
-1.11018e-41
6.06092e-42
-5.44394e-42
-6.45534e-42
5.44394e-42
-1.28382e-41
1.11019e-41
-6.45534e-42
6.19647e-42
6.06093e-42
7.6911e-43
6.41603e-42
2.88449e-43
-2.12066e-44
2.76701e-45
-4.68616e-44
2.7348e-44
-1.43735e-43
4.57081e-43
-2.25274e-43
4.07965e-43
-1.03443e-51
-8.9558e-43
2.25274e-43
-8.9558e-43
1.43735e-43
4.07965e-43
4.68572e-44
4.57081e-43
2.10548e-44
2.7359e-44
1.33359e-45
3.01214e-45
1.45463e-46
1.51049e-46
7.02239e-48
1.07645e-47
-7.02244e-48
9.67397e-49
-1.45464e-46
1.07646e-47
-1.33361e-45
1.5105e-46
-2.10554e-44
3.01216e-45
-4.68647e-44
2.73595e-44
-1.43881e-43
4.57092e-43
-2.26615e-43
4.08116e-43
-2.12009e-44
-8.92557e-43
1.77076e-43
-8.68069e-43
-2.12009e-44
8.68069e-43
-2.26615e-43
8.92557e-43
-1.43881e-43
-4.08116e-43
-4.68647e-44
-4.57092e-43
-2.10554e-44
-2.73595e-44
-1.33415e-45
-3.01214e-45
-1.53071e-46
-1.50564e-46
-1.53559e-46
2.57214e-50
-1.34117e-45
1.51022e-46
-2.11933e-44
3.02239e-45
-4.80523e-44
2.74997e-44
-1.63595e-43
4.59953e-43
-2.52271e-43
4.32453e-43
-1.16737e-43
-4.62986e-43
1.16738e-43
-9.20208e-43
2.52276e-43
-4.62986e-43
1.63688e-43
4.32451e-43
4.88115e-44
4.59831e-43
2.20845e-44
-1.37857e-45
2.65646e-46
-2.62293e-45
2.4717e-45
-1.84545e-45
4.05911e-44
-8.94412e-46
3.61793e-44
-8.27673e-53
-7.95472e-44
8.9441e-46
-7.95472e-44
1.84541e-45
3.61793e-44
2.62254e-45
4.05911e-44
1.36726e-45
2.47317e-45
9.10504e-47
2.87792e-46
1.01529e-47
1.46794e-47
5.0544e-49
1.07139e-48
-5.05445e-49
9.71739e-50
-1.0153e-47
1.07139e-48
-9.10522e-47
1.46795e-47
-1.3673e-45
2.87795e-46
-2.62308e-45
2.47322e-45
-1.85561e-45
4.05922e-44
-9.86007e-46
3.61941e-44
-1.37745e-45
-7.92584e-44
-1.81972e-45
-7.70593e-44
-1.37745e-45
7.70593e-44
-9.86007e-46
7.92584e-44
-1.85561e-45
-3.61941e-44
-2.62308e-45
-4.05922e-44
-1.3673e-45
-2.47322e-45
-9.10914e-47
-2.87792e-46
-1.0701e-47
-1.46307e-47
-1.07364e-47
2.60695e-51
-9.15966e-47
1.46767e-47
-1.37691e-45
2.88812e-46
-2.70394e-45
2.48682e-45
-3.13127e-45
4.08653e-44
-2.23109e-45
3.83784e-44
-5.0873e-46
-4.11551e-44
5.08748e-46
-8.176e-44
2.23148e-45
-4.11552e-44
3.13939e-45
3.8378e-44
2.76674e-45
4.08513e-44
1.97344e-45
-1.00828e-46
7.11499e-47
-1.78084e-46
1.64918e-46
1.02113e-46
2.67764e-45
3.67452e-46
2.37499e-45
2.73934e-53
-5.24454e-45
-3.67452e-46
-5.24454e-45
-1.02109e-46
2.37501e-45
1.77987e-46
2.67798e-45
1.00058e-46
1.70204e-46
6.77555e-48
2.02036e-47
7.73912e-49
1.06254e-48
3.88974e-50
7.81607e-50
-3.88978e-50
7.23516e-51
-7.7392e-49
7.81611e-50
-6.7757e-48
1.06255e-48
-1.00061e-46
2.02038e-47
-1.78029e-46
1.70208e-46
1.01332e-46
2.67806e-45
3.60634e-46
2.37607e-45
-1.00835e-46
-5.22426e-45
-5.52257e-46
-5.07327e-45
-1.00835e-46
5.07327e-45
3.60634e-46
5.22426e-45
1.01332e-46
-2.37607e-45
-1.78029e-46
-2.67806e-45
-1.00061e-46
-1.70208e-46
-6.77874e-48
-2.02036e-47
-8.16122e-49
-1.05892e-48
-8.18871e-49
1.94491e-52
-6.81762e-48
1.06234e-48
-1.00793e-46
2.02779e-47
-1.84028e-46
1.71192e-46
8.0917e-48
2.69719e-45
2.83482e-46
2.526e-45
1.86079e-46
-2.71755e-45
-1.86077e-46
-5.39652e-45
-2.83445e-46
-2.71755e-45
-7.34159e-48
2.52596e-45
1.89627e-46
2.6961e-45
1.35225e-46
7.23388e-49
2.04971e-46
-1.06735e-47
-6.22078e-47
1.04413e-47
1.89567e-46
2.96679e-47
1.72117e-46
5.69624e-52
-3.81095e-46
-2.96592e-47
-3.81085e-46
-1.03035e-47
1.72363e-46
1.04807e-47
1.9459e-46
6.05614e-48
1.25221e-47
4.21861e-49
1.52169e-48
4.86261e-50
8.08656e-50
2.49127e-51
6.00359e-51
-2.49129e-51
5.58988e-52
-4.86266e-50
6.00362e-51
-4.2187e-49
8.08663e-50
-6.05634e-48
1.5217e-48
-1.04834e-47
1.25223e-47
1.02547e-47
1.94596e-46
2.92347e-47
1.72445e-46
-6.10497e-48
-3.79557e-46
-4.05644e-47
-3.68481e-46
-6.10497e-48
3.68481e-46
2.92347e-47
3.79557e-46
1.02547e-47
-1.72445e-46
-1.04834e-47
-1.94596e-46
-6.05635e-48
-1.25223e-47
-4.22065e-49
-1.52169e-48
-5.13304e-50
-8.05855e-50
-5.15068e-50
1.50545e-53
-4.24556e-49
8.08499e-50
-6.10229e-48
1.52739e-48
-1.08564e-47
1.25972e-47
4.62306e-48
1.96036e-46
2.4859e-47
1.83439e-46
1.51037e-47
-1.9757e-46
-1.51036e-47
-3.92235e-46
-2.48564e-47
-1.9757e-46
-4.57154e-48
1.83435e-46
1.12355e-47
1.95947e-46
9.89597e-48
3.65772e-46
1.79044e-44
-2.72714e-48
-1.50739e-45
3.99008e-48
-9.08018e-47
2.22433e-48
6.35236e-48
1.08048e-50
-2.32909e-47
-2.03905e-48
-2.31272e-47
-7.42197e-49
1.04269e-47
6.57515e-49
1.1812e-47
3.83672e-49
7.8089e-49
2.69931e-50
9.57042e-50
3.13845e-51
5.18546e-51
1.61834e-52
3.85892e-52
-1.61835e-52
3.6392e-53
-3.13848e-51
3.85894e-52
-2.69937e-50
5.1855e-51
-3.83685e-49
9.57052e-50
-6.57689e-49
7.80908e-49
7.39066e-49
1.18124e-47
2.01238e-48
1.04323e-47
-3.86824e-49
-2.30252e-47
-2.72423e-48
-2.23352e-47
-3.86824e-49
2.23352e-47
2.01238e-48
2.30252e-47
7.39066e-49
-1.04323e-47
-6.57689e-49
-1.18124e-47
-3.83685e-49
-7.80908e-49
-2.70064e-50
-9.57042e-50
-3.31416e-51
-5.16722e-51
-3.32564e-51
9.79101e-55
-2.71682e-50
5.18444e-51
-3.86649e-49
9.60708e-50
-6.81531e-49
7.85708e-49
3.82562e-49
1.19029e-47
1.74169e-48
1.11171e-47
1.04008e-48
-1.19993e-47
-1.04007e-48
-2.38162e-47
-1.7415e-48
-1.19993e-47
-3.7895e-49
1.11169e-47
7.07924e-49
1.18968e-47
6.16199e-49
1.69176e-44
-4.64954e-44
9.55122e-46
-2.90669e-45
5.76325e-47
-1.53458e-46
2.92126e-48
-5.13979e-48
1.25312e-49
-1.92892e-48
-1.10439e-49
-1.68928e-48
-4.24789e-50
7.56815e-49
3.64026e-50
8.5862e-49
2.13549e-50
5.7284e-50
1.53032e-51
7.07945e-51
1.7834e-52
3.86169e-52
9.31381e-54
2.87833e-53
-9.31389e-54
2.72389e-54
-1.78341e-52
2.87835e-53
-1.53034e-51
3.86172e-52
-2.13553e-50
7.07954e-51
-3.64049e-50
5.72858e-50
4.25051e-50
8.58659e-49
1.1424e-49
7.57531e-49
-2.15337e-50
-1.67345e-48
-1.53716e-49
-1.62288e-48
-2.15337e-50
1.62288e-48
1.1424e-49
1.67345e-48
4.25051e-50
-7.57531e-49
-3.64049e-50
-8.58659e-49
-2.13554e-50
-5.72858e-50
-1.53107e-51
-7.07946e-51
-1.88452e-52
-3.84804e-52
-1.89111e-52
7.31281e-56
-1.54038e-51
3.86093e-52
-2.15237e-50
7.10681e-51
-3.77561e-50
5.76431e-50
2.26909e-50
8.65351e-49
9.9379e-50
8.07707e-49
5.90857e-50
-8.72487e-49
-5.9085e-50
-1.73148e-48
-9.93678e-50
-8.72488e-49
-2.24757e-50
8.07682e-49
3.93275e-50
8.64881e-49
4.51272e-50
3.41035e-39
-8.0369e-38
2.6779e-39
-1.89645e-38
2.95129e-40
-1.64227e-38
8.7521e-41
-8.52551e-40
5.42464e-42
-8.36619e-41
5.70794e-43
-3.97201e-42
3.03828e-44
-2.7554e-43
2.18298e-45
-1.23514e-44
1.04412e-46
-6.95301e-46
5.94286e-48
-2.92617e-47
2.55224e-49
-1.37317e-48
2.24339e-50
3.68905e-50
4.95453e-51
-3.06251e-50
-6.94143e-51
-6.09959e-50
-3.11858e-51
2.86201e-50
2.71223e-51
3.2645e-50
1.61367e-51
2.46081e-51
1.28413e-52
3.16747e-52
1.54451e-53
1.9158e-53
9.5005e-55
1.48784e-54
7.1403e-56
7.72265e-56
3.72118e-57
4.53489e-57
2.14264e-58
2.07714e-58
1.95572e-59
9.66257e-60
2.14469e-58
-9.67932e-60
3.72237e-57
-2.0809e-58
7.13358e-56
-4.54381e-57
9.45096e-55
-7.73991e-56
1.52476e-53
-1.49134e-54
1.21671e-52
-1.92049e-53
1.40468e-51
-3.17363e-52
-3.03033e-51
-2.45563e-51
-1.62094e-49
-3.22834e-50
-3.78758e-48
-1.3465e-50
-9.67345e-47
4.95664e-49
-2.01055e-45
1.10236e-47
-4.8037e-44
2.73641e-46
-8.54241e-43
5.62622e-45
-1.91449e-41
1.22335e-43
-2.76473e-40
1.49678e-42
-5.85865e-39
-1.16808e-41
-5.98141e-38
-3.09602e-39
-1.15809e-36
-1.77761e-37
-1.10202e-36
-7.3934e-36
1.10734e-36
-3.35528e-36
-7.42036e-36
1.13156e-36
1.83813e-37
-1.08303e-37
1.15984e-37
-8.16746e-38
7.13582e-39
-1.73267e-38
1.02427e-39
-8.42258e-40
5.70567e-41
-8.00078e-41
5.11585e-42
-3.76844e-42
2.62187e-43
-2.61076e-43
1.77606e-44
-1.16759e-44
8.37169e-46
-6.57321e-46
4.65793e-47
-2.75686e-47
2.02246e-48
-1.326e-48
9.7087e-50
-4.84838e-50
4.02327e-51
-3.27642e-51
-5.64829e-53
-2.38663e-51
-9.29888e-53
1.0801e-51
8.60511e-53
1.2363e-51
5.1191e-53
9.36301e-53
4.12434e-54
1.1983e-53
4.97808e-55
7.25771e-55
3.08868e-56
5.59241e-56
2.32229e-57
2.89804e-57
1.21649e-58
1.68673e-58
6.99243e-60
7.69518e-60
6.4138e-61
3.54686e-61
7.06103e-60
-3.54769e-61
1.23766e-58
-7.69061e-60
2.38871e-57
-1.68356e-58
3.28621e-56
-2.88284e-57
5.57356e-55
-5.53407e-56
5.80002e-54
-7.05302e-55
9.90045e-53
-1.13187e-53
1.3327e-51
-7.36783e-53
3.31819e-50
-6.52277e-52
7.87166e-49
1.44753e-50
1.95198e-47
4.21598e-49
4.09532e-46
9.95421e-48
9.39922e-45
2.4798e-46
1.69626e-43
5.11612e-45
3.60578e-42
1.11994e-43
5.32045e-41
1.43622e-42
1.04931e-39
-5.58257e-42
1.10671e-38
-2.52503e-39
1.92633e-37
-1.48091e-37
2.83916e-37
-6.24501e-36
2.5851e-38
-8.02247e-34
-6.27169e-36
-7.6883e-38
1.31679e-35
-6.82386e-36
2.18154e-37
-1.12374e-37
1.62844e-37
1.24696e-38
2.34869e-38
7.49416e-40
1.162e-39
7.89702e-41
1.04269e-40
3.77215e-42
5.00741e-42
2.62402e-43
3.3889e-43
1.17391e-44
1.53272e-44
6.6058e-46
8.51334e-46
2.76933e-47
3.59231e-47
1.33278e-48
1.71496e-48
5.22789e-50
6.73739e-50
2.1792e-51
2.83624e-51
6.40397e-54
1.007e-52
3.80268e-53
6.87068e-54
4.00632e-53
1.87365e-54
3.06974e-54
1.45016e-55
3.92777e-55
1.69893e-56
2.39945e-56
1.04919e-57
1.84556e-57
7.80812e-59
9.61051e-59
4.07626e-60
5.57535e-60
2.32745e-61
2.54815e-61
4.01694e-62
1.16772e-62
9.01234e-61
-1.23352e-62
2.65444e-59
-2.7762e-61
8.18342e-58
-6.37457e-60
2.41603e-56
-1.22778e-58
7.29009e-55
-2.72553e-57
2.06753e-53
-5.13399e-56
5.91614e-52
-1.23884e-54
1.55736e-50
-2.73497e-53
4.15767e-49
-7.42277e-52
9.92458e-48
-1.84566e-50
2.45633e-46
-4.96507e-49
5.2088e-45
-1.17315e-47
1.19249e-43
-2.93185e-46
2.18591e-42
-6.01169e-45
4.63027e-41
-1.30588e-43
6.99945e-40
-1.51527e-42
1.37457e-38
1.89121e-41
1.51687e-37
3.74547e-39
2.63692e-36
2.12686e-37
2.59092e-36
8.84103e-36
1.11672e-35
8.96136e-34
8.86596e-36
-2.15916e-36
2.02129e-37
-7.93804e-38
9.65975e-38
-5.09573e-38
6.23476e-39
1.45652e-38
9.2558e-40
8.13944e-40
5.2613e-41
8.28856e-41
4.79162e-42
3.95572e-42
2.4806e-43
2.74933e-43
1.69423e-44
1.23284e-44
8.03341e-46
6.9407e-46
4.49223e-47
2.91514e-47
1.95822e-48
1.40352e-48
9.40097e-50
5.5018e-50
3.78178e-51
2.33428e-51
1.60206e-52
8.28687e-53
5.87597e-54
4.44703e-54
3.16269e-55
1.46901e-54
6.04526e-56
1.08373e-55
4.55632e-57
1.34089e-56
5.2108e-58
8.15869e-58
3.22244e-59
6.20519e-59
2.38165e-60
3.22151e-60
1.24506e-61
1.85132e-61
7.04925e-63
8.42344e-63
5.42182e-64
3.67747e-64
2.88865e-63
-9.57408e-64
-2.20233e-62
-2.90596e-62
-3.32044e-60
-9.1188e-61
-1.49614e-58
-2.76007e-59
-6.08363e-57
-8.67506e-58
-1.85551e-55
-2.59107e-56
-6.41505e-54
-7.89388e-55
-1.66504e-52
-2.24079e-53
-5.3424e-51
-6.45261e-52
-1.21512e-49
-1.69086e-50
-3.68189e-48
-4.54585e-49
-7.24725e-47
-1.07537e-47
-2.08648e-45
-2.678e-46
-3.4459e-44
-5.49775e-45
-9.51709e-43
-1.18435e-43
-1.25094e-41
-1.34122e-42
-3.3643e-40
2.05724e-41
-3.03889e-39
3.5937e-39
-7.87356e-38
2.02151e-37
2.53077e-38
8.32872e-36
2.84363e-37
4.99066e-36
8.35522e-36
1.883e-37
1.31505e-38
-6.50122e-38
-7.61689e-39
-2.63542e-39
-1.88331e-40
5.3527e-40
3.4437e-41
3.67032e-41
3.01954e-42
3.91981e-42
3.95218e-43
2.03652e-43
2.27044e-44
1.44145e-44
1.73835e-45
6.80063e-46
8.59947e-47
3.86895e-47
5.0515e-48
1.68109e-48
2.24443e-49
8.15136e-50
1.10221e-50
3.27285e-51
4.46714e-52
1.39642e-52
1.91194e-53
5.12176e-54
7.10027e-55
2.35173e-55
3.00146e-56
4.79717e-56
2.57267e-57
3.43484e-57
1.6573e-58
4.12169e-58
1.68437e-59
2.51102e-59
1.01729e-60
1.89431e-60
7.34744e-62
9.84927e-62
3.80656e-63
5.62428e-63
1.30808e-66
2.56082e-64
-7.62908e-63
2.39737e-65
-2.71865e-61
4.57866e-64
-9.14766e-60
1.66593e-62
-3.05712e-58
5.96081e-61
-9.53845e-57
2.01119e-59
-2.98832e-55
6.73473e-58
-8.58464e-54
2.10016e-56
-2.51681e-52
6.58529e-55
-6.5925e-51
1.88701e-53
-1.80574e-49
5.53722e-52
-4.25443e-48
1.44429e-50
-1.08768e-46
3.96261e-49
-2.25987e-45
9.27688e-48
-5.39601e-44
2.37987e-46
-9.59134e-43
4.9031e-45
-2.14798e-41
1.18341e-43
-3.09992e-40
2.11825e-42
-6.5632e-39
5.07085e-41
-6.69436e-38
8.88712e-40
-1.29501e-36
2.48043e-38
-1.23245e-36
4.92404e-37
1.23814e-36
9.70521e-36
4.93657e-37
1.26774e-36
4.46017e-40
-8.98656e-39
-3.7628e-40
-3.51549e-40
-1.47388e-41
2.12094e-41
6.99373e-43
2.10006e-42
9.71555e-44
3.13097e-43
1.50216e-44
1.77459e-44
9.35638e-46
1.39984e-45
7.41885e-47
6.86619e-47
3.82943e-48
4.09314e-48
2.28307e-49
1.81103e-49
1.04234e-50
8.97168e-51
5.16112e-52
3.62931e-52
2.13125e-53
1.56254e-53
9.17153e-55
5.79939e-55
3.45757e-56
2.34743e-56
1.4084e-57
2.04348e-57
9.26136e-59
1.26002e-58
5.41178e-60
1.33058e-59
5.0029e-61
7.92226e-61
2.96697e-62
5.83373e-62
2.09931e-63
3.01165e-63
1.08767e-64
1.69908e-64
1.77712e-65
8.36757e-66
4.25704e-64
2.67397e-65
1.50998e-62
9.96923e-64
5.08692e-61
3.59169e-62
1.69267e-59
1.27692e-60
5.28616e-58
4.28843e-59
1.64474e-56
1.43211e-57
4.72583e-55
4.45853e-56
1.37094e-53
1.3962e-54
3.58722e-52
3.99946e-53
9.6719e-51
1.17252e-51
2.27158e-49
3.05906e-50
5.67324e-48
8.38511e-49
1.17071e-46
1.96418e-47
2.69907e-45
5.03314e-46
4.73132e-44
1.03756e-44
1.00349e-42
2.498e-43
1.40655e-41
4.45131e-42
2.7226e-40
1.04926e-40
2.60397e-39
1.75098e-39
4.27456e-38
4.6473e-38
4.04336e-38
8.40691e-37
-4.03293e-38
1.65656e-35
8.40733e-37
-4.17617e-38
3.69902e-41
-3.6492e-40
-3.76375e-41
-1.6529e-41
-1.65541e-42
3.65215e-43
-5.67261e-44
6.61143e-44
1.40839e-45
1.19655e-44
6.62752e-46
7.37705e-46
4.83784e-47
6.05501e-47
4.3238e-48
3.10482e-48
2.33888e-49
1.88149e-49
1.45646e-50
8.56083e-51
6.78155e-52
4.27791e-52
3.42093e-53
1.76354e-53
1.42388e-54
7.63261e-55
6.17076e-56
2.87533e-56
2.33289e-57
1.14202e-57
9.19251e-59
7.47191e-59
4.43868e-60
4.18163e-60
2.16726e-61
3.96572e-61
1.61747e-62
2.31682e-62
9.02647e-64
1.66776e-63
6.09879e-65
8.5731e-65
1.28246e-65
4.78983e-66
3.68181e-64
3.98365e-67
1.32709e-62
7.04189e-66
4.71693e-61
2.65862e-64
1.58623e-59
9.58038e-63
5.29442e-58
3.40865e-61
1.65133e-56
1.14509e-59
5.16589e-55
3.8279e-58
1.48365e-53
1.19211e-56
4.3416e-52
3.73801e-55
1.13698e-50
1.07115e-53
3.10665e-49
3.14563e-52
7.31769e-48
8.21105e-51
1.86469e-46
2.25712e-49
3.87304e-45
5.30714e-48
9.20662e-44
1.38214e-46
1.63562e-42
3.03733e-45
3.64007e-41
8.88103e-44
5.24777e-40
2.89461e-42
1.10085e-38
1.47185e-40
1.12008e-37
7.61784e-39
2.13404e-36
3.67584e-37
2.03272e-36
1.39309e-35
-2.03195e-36
3.38067e-35
1.39217e-35
-2.0853e-36
1.44153e-42
-3.09959e-41
-1.50017e-42
-1.38979e-42
-7.36755e-44
-5.03721e-44
-3.80864e-45
6.04416e-46
-3.42566e-47
5.18133e-46
1.95546e-47
3.72243e-47
1.66026e-48
3.45335e-48
1.59418e-49
1.85305e-49
9.03035e-51
1.17273e-50
5.74958e-52
5.44044e-52
2.74544e-53
2.76913e-53
1.39905e-54
1.15082e-54
5.91596e-56
5.0154e-56
2.57748e-57
1.8953e-57
9.84869e-59
7.40464e-59