/*--------------------------------*- C++ -*----------------------------------*\
| =========                 |                                                 |
| \\      /  F ield         | OpenFOAM: The Open Source CFD Toolbox           |
|  \\    /   O peration     | Version:  2.4.0                                 |
|   \\  /    A nd           | Web:      www.OpenFOAM.org                      |
|    \\/     M anipulation  |                                                 |
\*---------------------------------------------------------------------------*/
FoamFile
{
    version     2.0;
    format      ascii;
    class       volVectorField;
    location    "0.2";
    object      U;
}
// * * * * * * * * * * * * * * * * * * * * * * * * * * * * * * * * * * * * * //

dimensions      [0 1 -1 0 0 0 0];

internalField   nonuniform List<vector> 
7700
(
(5.59284e-37 1.25957e-37 0)
(1.17595e-35 1.31405e-36 0)
(7.51688e-35 2.62744e-35 0)
(1.92762e-33 2.38889e-35 0)
(1.86372e-33 -5.16136e-35 0)
(-1.86366e-33 -5.16076e-35 0)
(-1.92703e-33 2.4025e-35 0)
(-6.28657e-35 2.77191e-35 0)
(7.52214e-35 2.89094e-35 0)
(2.00284e-33 5.04298e-35 0)
(3.80363e-33 -2.62683e-35 0)
(8.75196e-35 -7.55025e-35 0)
(-1.77619e-33 2.38889e-35 0)
(1.87607e-33 5.01633e-35 0)
(1.92821e-33 -2.40254e-35 0)
(7.52214e-35 -2.62809e-35 0)
(1.17632e-35 -1.31471e-36 0)
(5.40007e-37 -1.30043e-37 0)
(5.01671e-38 -6.06022e-39 0)
(2.31337e-39 -4.22435e-40 0)
(1.59509e-40 -1.87275e-41 0)
(7.04297e-42 -1.05743e-42 0)
(3.95564e-43 -4.40887e-44 0)
(1.72329e-44 -2.04411e-45 0)
(1.7261e-44 2.04763e-45 0)
(3.96323e-43 4.41682e-44 0)
(7.05862e-42 1.05948e-42 0)
(1.59889e-40 1.87695e-41 0)
(2.32002e-39 4.23448e-40 0)
(5.03196e-38 6.07789e-39 0)
(5.42161e-37 1.30446e-37 0)
(1.1811e-35 1.32034e-36 0)
(7.57109e-35 2.64048e-35 0)
(1.93943e-33 2.52092e-35 0)
(1.93943e-33 -2.52092e-35 0)
(7.57109e-35 -2.64048e-35 0)
(1.1811e-35 -1.32034e-36 0)
(5.42161e-37 -1.30446e-37 0)
(5.03196e-38 -6.07789e-39 0)
(2.32002e-39 -4.23448e-40 0)
(1.59889e-40 -1.87696e-41 0)
(7.0581e-42 -1.06027e-42 0)
(3.9256e-43 -5.75852e-44 0)
(-3.57758e-44 -9.85727e-44 0)
(1.40669e-45 -1.36371e-42 0)
(5.6352e-44 -7.43203e-44 0)
(5.09919e-38 -5.97463e-38 0)
(9.53175e-37 -6.64523e-37 0)
(6.69847e-36 -1.33061e-35 0)
(1.21875e-34 -1.20977e-35 0)
(1.16084e-34 2.61361e-35 0)
(-1.16079e-34 2.61332e-35 0)
(-1.2182e-34 -1.21654e-35 0)
(-5.69473e-36 -1.40357e-35 0)
(6.70321e-36 -1.46386e-35 0)
(1.28578e-34 -2.55364e-35 0)
(2.38962e-34 1.33031e-35 0)
(7.70649e-36 3.82339e-35 0)
(-1.08377e-34 -1.20977e-35 0)
(1.17092e-34 -2.54038e-35 0)
(1.2193e-34 1.21656e-35 0)
(6.70321e-36 1.33093e-35 0)
(9.53563e-37 6.64894e-37 0)
(5.01922e-38 6.47165e-38 0)
(4.50038e-39 2.99627e-39 0)
(2.23894e-40 2.06799e-40 0)
(1.52189e-41 9.11499e-42 0)
(7.06029e-43 5.11563e-43 0)
(3.94605e-44 2.12315e-44 0)
(1.78112e-45 9.80557e-46 0)
(1.78411e-45 -9.82235e-46 0)
(3.95389e-44 -2.12694e-44 0)
(7.07646e-43 -5.12543e-43 0)
(1.52567e-41 -9.1352e-42 0)
(2.2456e-40 -2.07289e-40 0)
(4.51489e-39 -3.00487e-39 0)
(5.04008e-38 -6.49141e-38 0)
(9.57839e-37 -6.67683e-37 0)
(6.74887e-36 -1.3371e-35 0)
(1.22833e-34 -1.27654e-35 0)
(1.22833e-34 1.27654e-35 0)
(6.74887e-36 1.3371e-35 0)
(9.57839e-37 6.67683e-37 0)
(5.04008e-38 6.49141e-38 0)
(4.51489e-39 3.00487e-39 0)
(2.2456e-40 2.07289e-40 0)
(1.52561e-41 9.13411e-42 0)
(6.97683e-43 4.9891e-43 0)
(-3.25352e-44 -2.11417e-43 0)
(-1.01428e-42 -1.68843e-42 0)
(1.13987e-44 -2.43317e-41 0)
(1.08607e-42 -1.30411e-42 0)
(7.3738e-39 -5.3119e-39 0)
(1.17682e-37 -6.08625e-38 0)
(4.06145e-37 -1.02283e-36 0)
(5.21088e-36 -9.1186e-37 0)
(4.9163e-36 2.00165e-36 0)
(-4.9155e-36 2.00136e-36 0)
(-5.2033e-36 -9.17951e-37 0)
(-2.81576e-37 -1.08953e-36 0)
(4.06914e-37 -1.14489e-36 0)
(5.61779e-36 -1.9466e-36 0)
(1.02517e-35 1.02254e-36 0)
(5.31403e-37 2.91352e-36 0)
(-4.38483e-36 -9.1186e-37 0)
(5.04156e-36 -1.93469e-36 0)
(5.2185e-36 9.17971e-37 0)
(4.06914e-37 1.02314e-36 0)
(1.1772e-37 6.08965e-38 0)
(6.84987e-39 5.80044e-39 0)
(7.30147e-40 2.91128e-40 0)
(3.7812e-41 1.98289e-41 0)
(2.74469e-42 9.19544e-43 0)
(1.295e-43 5.13601e-44 0)
(7.44105e-45 2.21048e-45 0)
(3.37856e-46 1.01985e-46 0)
(3.38429e-46 -1.02165e-46 0)
(7.45607e-45 -2.21454e-45 0)
(1.29806e-43 -5.14621e-44 0)
(2.75181e-42 -9.21648e-43 0)
(3.7934e-41 -1.9878e-41 0)
(7.32761e-40 -2.91996e-40 0)
(6.88493e-39 -5.81934e-39 0)
(1.18412e-37 -6.11677e-38 0)
(4.13028e-37 -1.02865e-36 0)
(5.32929e-36 -9.73027e-37 0)
(5.32929e-36 9.73027e-37 0)
(4.13028e-37 1.02865e-36 0)
(1.18412e-37 6.11677e-38 0)
(6.88493e-39 5.81934e-39 0)
(7.32761e-40 2.91996e-40 0)
(3.79332e-41 1.98772e-41 0)
(2.74151e-42 9.04763e-43 0)
(-4.58922e-44 -1.59964e-43 0)
(-1.26394e-42 -3.62996e-42 0)
(-1.82824e-41 -2.65318e-41 0)
(1.8812e-43 -3.85378e-40 0)
(1.94556e-41 -2.05514e-41 0)
(5.57553e-40 -8.77574e-40 0)
(7.95826e-39 -8.72455e-39 0)
(1.83222e-38 -1.42161e-37 0)
(1.697e-37 -1.26478e-37 0)
(1.58881e-37 2.78372e-37 0)
(-1.58818e-37 2.78322e-37 0)
(-1.69131e-37 -1.27483e-37 0)
(-9.84988e-39 -1.51848e-37 0)
(1.83823e-38 -1.59669e-37 0)
(1.88082e-37 -2.70603e-37 0)
(3.3705e-37 1.42111e-37 0)
(2.68479e-38 4.0485e-37 0)
(-1.32027e-37 -1.26478e-37 0)
(1.67407e-37 -2.68639e-37 0)
(1.70272e-37 1.27487e-37 0)
(1.83823e-38 1.42214e-37 0)
(7.9607e-39 8.73142e-39 0)
(5.11653e-40 9.55855e-40 0)
(5.69568e-41 4.96639e-41 0)
(3.11272e-42 3.60676e-42 0)
(2.29002e-43 1.70115e-43 0)
(1.11782e-44 9.76992e-45 0)
(6.4627e-46 4.22858e-46 0)
(3.00323e-47 1.97122e-47 0)
(3.00841e-47 -1.9747e-47 0)
(6.47609e-46 -4.23642e-46 0)
(1.12054e-44 -9.78963e-45 0)
(2.2962e-43 -1.70518e-43 0)
(3.12325e-42 -3.61611e-42 0)
(5.71745e-41 -4.98242e-41 0)
(5.14535e-40 -9.5929e-40 0)
(8.01452e-39 -8.77745e-39 0)
(1.88365e-38 -1.4312e-37 0)
(1.77714e-37 -1.35255e-37 0)
(1.77714e-37 1.35255e-37 0)
(1.88365e-38 1.4312e-37 0)
(8.01452e-39 8.77745e-39 0)
(5.14535e-40 9.5929e-40 0)
(5.71739e-41 4.98234e-41 0)
(3.11047e-42 3.6028e-42 0)
(6.98102e-44 -9.40159e-44 0)
(-2.73243e-42 -3.30963e-42 0)
(-1.99733e-41 -5.81756e-41 0)
(-2.89692e-40 -4.28167e-40 0)
(2.66978e-42 -6.39661e-39 0)
(3.06611e-40 -3.33088e-40 0)
(4.86013e-41 -1.06765e-40 0)
(6.99372e-40 -6.67201e-40 0)
(9.34252e-40 -9.986e-39 0)
(3.48224e-39 -8.79613e-39 0)
(3.20468e-39 1.95201e-38 0)
(-3.19847e-39 1.9516e-38 0)
(-3.4299e-39 -8.87483e-39 0)
(-1.8951e-40 -1.07204e-38 0)
(9.39889e-40 -1.13123e-38 0)
(4.42194e-39 -1.89327e-38 0)
(7.43088e-39 9.97866e-39 0)
(1.68374e-39 2.8316e-38 0)
(-1.52031e-39 -8.7959e-39 0)
(3.95438e-39 -1.87786e-38 0)
(3.53451e-39 8.87513e-39 0)
(9.39889e-40 9.98717e-39 0)
(6.97921e-40 6.62859e-40 0)
(4.65959e-41 7.48448e-41 0)
(5.55427e-42 4.09723e-42 0)
(3.09256e-43 3.01385e-43 0)
(2.33479e-44 1.47064e-44 0)
(1.15013e-45 8.49798e-46 0)
(6.71558e-47 3.76407e-47 0)
(3.13135e-48 1.75976e-48 0)
(3.13677e-48 -1.76293e-48 0)
(6.72956e-47 -3.77119e-47 0)
(1.15297e-45 -8.51557e-46 0)
(2.34121e-44 -1.47422e-44 0)
(3.10339e-43 -3.02197e-43 0)
(5.57646e-42 -4.11109e-42 0)
(4.68817e-41 -7.51314e-41 0)
(7.03164e-40 -6.66653e-40 0)
(9.80884e-40 -1.00579e-38 0)
(4.18522e-39 -9.46254e-39 0)
(4.18522e-39 9.46254e-39 0)
(9.80884e-40 1.00579e-38 0)
(7.03163e-40 6.66653e-40 0)
(4.68811e-41 7.51309e-41 0)
(5.56638e-42 4.1007e-42 0)
(1.10092e-43 1.28836e-43 0)
(-2.48676e-42 -3.4477e-42 0)
(-4.39628e-41 -4.37234e-41 0)
(-3.22487e-40 -7.7314e-40 0)
(-4.81113e-39 -5.8009e-39 0)
(3.83968e-41 -8.7452e-38 0)
(5.06378e-39 -4.55072e-39 0)
(-5.68178e-41 -5.47712e-40 0)
(7.21026e-41 -1.3819e-40 0)
(4.96123e-41 -9.60899e-40 0)
(5.2509e-42 -8.02217e-40 0)
(-7.10975e-43 1.77443e-39 0)
(1.33967e-42 1.77446e-39 0)
(7.54969e-43 -8.0624e-40 0)
(2.28303e-42 -9.76011e-40 0)
(4.64123e-41 -1.03031e-39 0)
(4.92163e-41 -1.72103e-39 0)
(5.01794e-41 9.07023e-40 0)
(9.46503e-41 2.57339e-39 0)
(9.55797e-41 -7.98504e-40 0)
(4.77623e-41 -1.70593e-39 0)
(6.3839e-42 8.06269e-40 0)
(4.64123e-41 9.07871e-40 0)
(4.51153e-41 6.12541e-41 0)
(3.17078e-42 7.32785e-42 0)
(3.86986e-43 4.08078e-43 0)
(2.22529e-44 3.07892e-44 0)
(1.69464e-45 1.51612e-45 0)
(8.52569e-47 8.84789e-47 0)
(4.99562e-48 3.93211e-48 0)
(2.36205e-49 1.84211e-49 0)
(2.36618e-49 -1.84542e-49 0)
(5.00617e-48 -3.93956e-48 0)
(8.5471e-47 -8.86631e-47 0)
(1.69941e-45 -1.51986e-45 0)
(2.23331e-44 -3.08738e-44 0)
(3.88595e-43 -4.09506e-43 0)
(3.19133e-42 -7.35712e-42 0)
(4.54799e-41 -6.16312e-41 0)
(4.91927e-41 -9.14788e-40 0)
(4.82839e-41 -8.60134e-40 0)
(4.82839e-41 8.60134e-40 0)
(4.91927e-41 9.14788e-40 0)
(4.54795e-41 6.16309e-41 0)
(3.18346e-42 7.35087e-42 0)
(2.5721e-43 2.68878e-43 0)
(-2.60069e-42 -2.32576e-42 0)
(-3.30871e-41 -4.80545e-41 0)
(-5.84655e-40 -6.12062e-40 0)
(-4.37126e-39 -1.11675e-38 0)
(-6.58143e-38 -8.55475e-38 0)
(4.11165e-40 -1.34617e-36 0)
(6.8725e-38 -6.77774e-38 0)
(-8.38906e-40 -8.20728e-39 0)
(3.87924e-40 -1.06646e-39 0)
(5.96748e-41 -7.77552e-40 0)
(3.34267e-41 -1.01237e-40 0)
(-3.8364e-42 1.1011e-40 0)
(7.01393e-42 1.15701e-40 0)
(7.12836e-42 -5.25204e-41 0)
(6.52612e-43 -6.40918e-41 0)
(2.91156e-42 -6.77967e-41 0)
(-3.93225e-42 -1.12397e-40 0)
(-9.94924e-42 5.93597e-41 0)
(6.43918e-42 1.68025e-40 0)
(1.30775e-41 -5.19539e-41 0)
(-3.07606e-42 -1.11343e-40 0)
(-6.57737e-42 5.24967e-41 0)
(2.91149e-42 5.94208e-41 0)
(3.2962e-42 4.19025e-42 0)
(2.35201e-43 5.11303e-43 0)
(2.94629e-44 2.93919e-44 0)
(1.71194e-45 2.23648e-45 0)
(1.31666e-46 1.12474e-46 0)
(6.66102e-48 6.58688e-48 0)
(3.91227e-49 2.9683e-49 0)
(1.85303e-50 1.39156e-50 0)
(1.85626e-50 -1.39408e-50 0)
(3.92054e-49 -2.97398e-49 0)
(6.67782e-48 -6.60079e-48 0)
(1.32039e-46 -1.12756e-46 0)
(1.71821e-45 -2.24276e-45 0)
(2.95879e-44 -2.94978e-44 0)
(2.3678e-43 -5.13426e-43 0)
(3.32393e-42 -4.2174e-42 0)
(3.11696e-42 -5.99025e-41 0)
(-3.51981e-42 -5.61712e-41 0)
(-3.51981e-42 5.61711e-41 0)
(3.11672e-42 5.99024e-41 0)
(3.31919e-42 4.21429e-42 0)
(1.30072e-43 4.50759e-43 0)
(-1.75777e-42 -1.38427e-42 0)
(-3.64292e-41 -2.38285e-41 0)
(-4.63455e-40 -4.89567e-40 0)
(-8.44812e-39 -6.3516e-39 0)
(-6.44422e-38 -1.17545e-37 0)
(-1.01305e-36 -9.465e-37 0)
(4.58861e-39 -1.50321e-35 0)
(1.05055e-36 -7.63527e-37 0)
(-1.21138e-38 -9.63157e-38 0)
(6.40046e-39 -1.49597e-38 0)
(8.21557e-40 -1.10165e-38 0)
(5.41568e-40 -7.32241e-40 0)
(3.66546e-41 -7.84669e-41 0)
(5.0218e-42 3.70347e-42 0)
(8.09454e-43 -4.22265e-42 0)
(6.90335e-44 -4.7362e-42 0)
(1.67252e-43 -4.99415e-42 0)
(-3.6884e-43 -8.26389e-42 0)
(-8.34882e-43 4.36523e-42 0)
(3.79706e-43 1.23523e-41 0)
(8.93198e-43 -3.81598e-42 0)
(-2.97873e-43 -8.18347e-42 0)
(-5.1858e-43 3.85738e-42 0)
(1.66264e-43 4.36994e-42 0)
(1.99054e-43 3.1176e-43 0)
(1.46239e-44 3.89738e-44 0)
(1.84941e-45 2.26328e-45 0)
(1.09633e-46 1.73913e-46 0)
(8.45805e-48 8.79498e-48 0)
(4.33517e-49 5.16289e-49 0)
(2.54655e-50 2.33084e-50 0)
(1.21581e-51 1.09091e-51 0)
(1.21794e-51 -1.09287e-51 0)
(2.55196e-50 -2.3353e-50 0)
(4.3462e-49 -5.1738e-49 0)
(8.48235e-48 -8.81715e-48 0)
(1.10041e-46 -1.74406e-46 0)
(1.85743e-45 -2.27156e-45 0)
(1.4725e-44 -3.91388e-44 0)
(2.00793e-43 -3.13848e-43 0)
(1.79022e-43 -4.40663e-42 0)
(-3.34373e-43 -4.12982e-42 0)
(-3.34465e-43 4.12976e-42 0)
(1.76662e-43 4.40524e-42 0)
(1.53141e-43 2.79028e-43 0)
(-1.05999e-42 -6.67665e-43 0)
(-1.81047e-41 -1.63092e-41 0)
(-3.71745e-40 -2.77385e-40 0)
(-4.81473e-39 -5.89537e-39 0)
(-8.89371e-38 -7.79489e-38 0)
(-7.10559e-37 -1.52184e-36 0)
(-1.12819e-35 -1.28698e-35 0)
(1.93126e-38 -2.1966e-34 0)
(1.15391e-35 -1.05985e-35 0)
(-1.20532e-37 -1.35242e-36 0)
(9.46011e-38 -1.71076e-37 0)
(1.28395e-38 -1.18188e-37 0)
(8.33506e-39 -7.69343e-39 0)
(5.48811e-40 -8.75457e-40 0)
(6.57266e-41 -4.74462e-41 0)
(3.68743e-42 -3.78965e-42 0)
(2.79943e-43 -4.60087e-43 0)
(2.39337e-44 -3.13415e-43 0)
(-2.54125e-44 -4.99945e-43 0)
(-5.78904e-44 2.64207e-43 0)
(2.38351e-44 7.46507e-43 0)
(5.87778e-44 -2.30073e-43 0)
(-2.12838e-44 -4.94446e-43 0)
(-3.54617e-44 2.32676e-43 0)
(1.03136e-44 2.64531e-43 0)
(1.26006e-44 1.94083e-44 0)
(9.3462e-46 2.44792e-45 0)
(1.19303e-46 1.45017e-46 0)
(7.12092e-48 1.11775e-47 0)
(5.50555e-49 5.72685e-49 0)
(2.8316e-50 3.36225e-50 0)
(1.66052e-51 1.53019e-51 0)
(7.931e-53 7.14946e-53 0)
(7.94481e-53 -7.16237e-53 0)
(1.66404e-51 -1.53312e-51 0)
(2.8388e-50 -3.3694e-50 0)
(5.52139e-49 -5.74141e-49 0)
(7.14756e-48 -1.12096e-47 0)
(1.19825e-46 -1.45556e-46 0)
(9.41185e-46 -2.45852e-45 0)
(1.27127e-44 -1.95421e-44 0)
(1.11261e-44 -2.66833e-43 0)
(-2.38556e-44 -2.49628e-43 0)
(-2.48716e-44 2.49248e-43 0)
(-1.54051e-44 2.58313e-43 0)
(-5.25784e-43 -1.93265e-43 0)
(-1.24221e-41 -4.33625e-42 0)
(-2.11159e-40 -1.00514e-40 0)
(-4.48332e-39 -1.73719e-39 0)
(-5.91002e-38 -3.74128e-38 0)
(-1.14903e-36 -5.19543e-37 0)
(-9.55299e-36 -1.05099e-35 0)
(-1.63369e-34 -1.03214e-34 0)
(9.00016e-39 -1.7756e-33 0)
(1.65559e-34 -8.85112e-35 0)
(-9.70341e-37 -1.21878e-35 0)
(1.99535e-36 -2.2026e-36 0)
(1.91062e-37 -1.74398e-36 0)
(8.98989e-38 -1.06291e-37 0)
(5.75725e-39 -1.17873e-38 0)
(6.56748e-40 -6.1495e-40 0)
(3.59963e-41 -4.49931e-41 0)
(2.67993e-42 -2.14558e-42 0)
(1.31722e-43 -1.41697e-43 0)
(6.12504e-45 -3.68588e-44 0)
(-2.9549e-45 1.64379e-44 0)
(1.33655e-45 4.71385e-44 0)
(3.29791e-45 -1.45204e-44 0)
(-1.21683e-45 -3.12251e-44 0)
(-2.00963e-45 1.46875e-44 0)
(5.67622e-46 1.67153e-44 0)
(7.00304e-46 1.23771e-45 0)
(5.29625e-47 1.5744e-46 0)
(6.77581e-48 9.39024e-48 0)
(4.09813e-49 7.25032e-49 0)
(3.16592e-50 3.72718e-50 0)
(1.64164e-51 2.18394e-51 0)
(9.60342e-53 9.94401e-53 0)
(4.6061e-54 4.62729e-54 0)
(4.61409e-54 -4.6356e-54 0)
(9.62374e-53 -9.96297e-53 0)
(1.64581e-51 -2.18857e-51 0)
(3.17503e-50 -3.73666e-50 0)
(4.11342e-49 -7.27121e-49 0)
(6.80533e-48 -9.42548e-48 0)
(5.33265e-47 -1.58133e-46 0)
(7.06262e-46 -1.24652e-45 0)
(6.03269e-46 -1.68677e-44 0)
(-1.6449e-45 -1.58821e-44 0)
(-7.91524e-45 1.25883e-44 0)
(-1.63057e-43 -5.74827e-44 0)
(-3.33758e-42 -1.90609e-42 0)
(-7.73186e-41 -3.92114e-41 0)
(-1.33587e-39 -9.43078e-40 0)
(-2.8687e-38 -1.65225e-38 0)
(-3.94255e-37 -3.77157e-37 0)
(-7.84069e-36 -5.43487e-36 0)
(-7.22659e-35 -1.22205e-34 0)
(-1.25338e-33 -1.3553e-33 0)
(-3.02039e-36 -2.68087e-32 0)
(1.2203e-33 -1.21191e-33 0)
(-4.07701e-37 -9.46268e-38 0)
(-9.41147e-36 -1.01331e-36 0)
(-6.11301e-35 -2.24923e-35 0)
(-1.73914e-33 -2.06485e-35 0)
(-1.68706e-33 4.42562e-35 0)
(1.68706e-33 4.42562e-35 0)
(1.73914e-33 -2.06485e-35 0)
(6.113e-35 -2.24923e-35 0)
(9.41227e-36 -1.01346e-36 0)
(3.92258e-37 -9.74051e-38 0)
(3.55357e-38 -4.14801e-39 0)
(1.49532e-39 -2.80362e-40 0)
(-3.90036e-46 -2.28413e-41 0)
(-1.49533e-39 -2.80363e-40 0)
(-3.55359e-38 -4.14804e-39 0)
(-3.92262e-37 -9.74058e-38 0)
(-9.41237e-36 -1.01347e-36 0)
(-6.11315e-35 -2.24926e-35 0)
(-1.73917e-33 -2.06527e-35 0)
(-1.68746e-33 4.41585e-35 0)
(1.67762e-33 4.32385e-35 0)
(1.67762e-33 -4.32385e-35 0)
(-1.68746e-33 -4.41585e-35 0)
(-1.73917e-33 2.06527e-35 0)
(-6.11315e-35 2.24926e-35 0)
(-9.41237e-36 1.01347e-36 0)
(-3.92266e-37 9.74051e-38 0)
(-3.56364e-38 4.13657e-39 0)
(-3.00265e-39 -5.96362e-43 0)
(-3.57321e-38 -4.14739e-39 0)
(-3.93665e-37 -9.76734e-38 0)
(-9.4464e-36 -1.01734e-36 0)
(-6.14881e-35 -2.25858e-35 0)
(-1.74819e-33 -2.15685e-35 0)
(-1.73914e-33 2.26838e-35 0)
(-2.9381e-42 4.518e-35 0)
(1.73914e-33 2.26838e-35 0)
(1.74819e-33 -2.15687e-35 0)
(6.14542e-35 -2.25862e-35 0)
(9.26075e-36 -9.6109e-37 0)
(-3.71744e-38 4.50334e-38 0)
(-7.60284e-37 5.1242e-37 0)
(-5.45531e-36 1.13903e-35 0)
(-1.10167e-34 1.04564e-35 0)
(-1.05439e-34 -2.241e-35 0)
(1.05439e-34 -2.241e-35 0)
(1.10167e-34 1.04564e-35 0)
(5.4553e-36 1.13903e-35 0)
(7.60378e-37 5.12525e-37 0)
(3.64374e-38 4.845e-38 0)
(3.17514e-39 2.05018e-39 0)
(1.44528e-40 1.3719e-40 0)
(-4.0158e-47 1.11143e-41 0)
(-1.44529e-40 1.37191e-40 0)
(-3.17517e-39 2.05019e-39 0)
(-3.64378e-38 4.84503e-38 0)
(-7.60388e-37 5.1253e-37 0)
(-5.45545e-36 1.13905e-35 0)
(-1.1017e-34 1.04585e-35 0)
(-1.05475e-34 -2.23614e-35 0)
(1.04675e-34 -2.18954e-35 0)
(1.04675e-34 2.18954e-35 0)
(-1.05475e-34 2.23614e-35 0)
(-1.1017e-34 -1.04585e-35 0)
(-5.45545e-36 -1.13905e-35 0)
(-7.60388e-37 -5.1253e-37 0)
(-3.64382e-38 -4.845e-38 0)
(-3.18472e-39 -2.04461e-39 0)
(-2.90257e-40 2.88489e-43 0)
(-3.19379e-39 2.04988e-39 0)
(-3.65736e-38 4.85814e-38 0)
(-7.63418e-37 5.14443e-37 0)
(-5.4887e-36 1.14369e-35 0)
(-1.10894e-34 1.09224e-35 0)
(-1.10167e-34 -1.14856e-35 0)
(-3.42543e-43 -2.28779e-35 0)
(1.10167e-34 -1.14856e-35 0)
(1.10894e-34 1.09225e-35 0)
(5.48522e-36 1.1436e-35 0)
(7.39922e-37 4.25404e-37 0)
(-5.39237e-39 3.99213e-39 0)
(-9.48614e-38 4.69854e-38 0)
(-3.31856e-37 8.76624e-37 0)
(-4.73455e-36 7.90732e-37 0)
(-4.49305e-36 -1.71889e-36 0)
(4.49305e-36 -1.71889e-36 0)
(4.73455e-36 7.90732e-37 0)
(3.31854e-37 8.76624e-37 0)
(9.48594e-38 4.69943e-38 0)
(4.99567e-39 4.32799e-39 0)
(5.18121e-40 1.98996e-40 0)
(2.44707e-41 1.31029e-41 0)
(-7.70319e-48 1.11933e-42 0)
(-2.44708e-41 1.3103e-41 0)
(-5.18126e-40 1.98997e-40 0)
(-4.99574e-39 4.32802e-39 0)
(-9.48611e-38 4.69949e-38 0)
(-3.31879e-37 8.76637e-37 0)
(-4.73507e-36 7.90931e-37 0)
(-4.49807e-36 -1.71455e-36 0)
(4.39767e-36 -1.6717e-36 0)
(4.39767e-36 1.6717e-36 0)
(-4.49807e-36 1.71455e-36 0)
(-4.73507e-36 -7.90931e-37 0)
(-3.31879e-37 -8.76637e-37 0)
(-9.48611e-38 -4.69949e-38 0)
(-4.99582e-39 -4.32799e-39 0)
(-5.19854e-40 -1.98435e-40 0)
(-4.9162e-41 2.88014e-44 0)
(-5.21496e-40 1.98966e-40 0)
(-5.01864e-39 4.3405e-39 0)
(-9.53546e-38 4.71808e-38 0)
(-3.36355e-37 8.80766e-37 0)
(-4.82491e-36 8.33585e-37 0)
(-4.73455e-36 -8.8512e-37 0)
(-1.55268e-44 -1.76193e-36 0)
(4.73455e-36 -8.85119e-37 0)
(4.82491e-36 8.33594e-37 0)
(3.36343e-37 8.80686e-37 0)
(9.56878e-38 3.90332e-38 0)
(-4.08612e-40 6.60845e-40 0)
(-6.44205e-39 6.73802e-39 0)
(-1.50246e-38 1.21902e-37 0)
(-1.55367e-37 1.09759e-37 0)
(-1.46449e-37 -2.39154e-37 0)
(1.46449e-37 -2.39154e-37 0)
(1.55367e-37 1.09759e-37 0)
(1.50245e-38 1.21902e-37 0)
(6.44151e-39 6.7403e-39 0)
(3.73969e-40 7.16318e-40 0)
(4.04328e-41 3.40259e-41 0)
(2.01535e-42 2.39162e-42 0)
(-6.85797e-49 2.07448e-43 0)
(-2.01536e-42 2.39163e-42 0)
(-4.04331e-41 3.40262e-41 0)
(-3.73976e-40 7.16324e-40 0)
(-6.44165e-39 6.74041e-39 0)
(-1.50265e-38 1.21904e-37 0)
(-1.55408e-37 1.09793e-37 0)
(-1.46825e-37 -2.38435e-37 0)
(1.39967e-37 -2.32379e-37 0)
(1.39967e-37 2.32379e-37 0)
(-1.46825e-37 2.38435e-37 0)
(-1.55408e-37 -1.09793e-37 0)
(-1.50265e-38 -1.21904e-37 0)
(-6.44165e-39 -6.74041e-39 0)
(-3.73982e-40 -7.16318e-40 0)
(-4.05773e-41 -3.3922e-41 0)
(-4.04974e-42 5.48986e-45 0)
(-4.07139e-41 3.40202e-41 0)
(-3.7586e-40 7.186e-40 0)
(-6.48006e-39 6.77204e-39 0)
(-1.53599e-38 1.22586e-37 0)
(-1.61473e-37 1.15814e-37 0)
(-1.55367e-37 -1.23307e-37 0)
(-3.37234e-46 -2.45241e-37 0)
(1.55367e-37 -1.23307e-37 0)
(1.61474e-37 1.15815e-37 0)
(1.53701e-38 1.22562e-37 0)
(6.57988e-39 5.48378e-39 0)
(-3.83267e-41 5.15221e-41 0)
(-5.66898e-40 5.11845e-40 0)
(-7.70506e-40 8.56642e-39 0)
(-3.33162e-39 7.64664e-39 0)
(-3.09757e-39 -1.67842e-38 0)
(3.09757e-39 -1.67842e-38 0)
(3.33162e-39 7.64664e-39 0)
(7.70492e-40 8.56643e-39 0)
(5.66784e-40 5.12046e-40 0)
(3.41088e-41 5.60849e-41 0)
(3.95101e-42 2.80833e-42 0)
(2.00415e-43 1.99665e-43 0)
(-7.1657e-50 1.79295e-44 0)
(-2.00416e-43 1.99666e-43 0)
(-3.95105e-42 2.80835e-42 0)
(-3.41095e-41 5.60854e-41 0)
(-5.66799e-40 5.12055e-40 0)
(-7.70694e-40 8.56663e-39 0)
(-3.33559e-39 7.64946e-39 0)
(-3.13188e-39 -1.67279e-38 0)
(2.52682e-39 -1.62694e-38 0)
(2.52682e-39 1.62694e-38 0)
(-3.13188e-39 1.67279e-38 0)
(-3.33559e-39 -7.64946e-39 0)
(-7.70694e-40 -8.56663e-39 0)
(-5.66799e-40 -5.12055e-40 0)
(-3.41102e-41 -5.60849e-41 0)
(-3.96577e-42 -2.79935e-42 0)
(-4.0279e-43 4.76278e-46 0)
(-3.9797e-42 2.80783e-42 0)
(-3.42966e-41 5.62751e-41 0)
(-5.70548e-40 5.14664e-40 0)
(-8.00837e-40 8.61989e-39 0)
(-3.86806e-39 8.10522e-39 0)
(-3.33162e-39 -8.67637e-39 0)
(1.60936e-46 -1.72454e-38 0)
(3.33162e-39 -8.67637e-39 0)
(3.86818e-39 8.10521e-39 0)
(8.03381e-40 8.61766e-39 0)
(5.89671e-40 4.13759e-40 0)
(-2.6358e-42 5.05124e-42 0)
(-3.67077e-41 4.73032e-41 0)
(-3.81492e-41 7.78911e-40 0)
(-1.45189e-41 6.94476e-40 0)
(-1.10071e-41 -1.52652e-39 0)
(1.10071e-41 -1.52652e-39 0)
(1.45189e-41 6.94476e-40 0)
(3.81481e-41 7.78911e-40 0)
(3.66976e-41 4.73267e-41 0)
(2.32319e-42 5.50031e-42 0)
(2.75334e-43 2.7996e-43 0)
(1.4425e-44 2.04225e-44 0)
(-5.40387e-51 1.84959e-45 0)
(-1.44251e-44 2.04226e-44 0)
(-2.75337e-43 2.79962e-43 0)
(-2.32324e-42 5.50036e-42 0)
(-3.66987e-41 4.73276e-41 0)
(-3.81626e-41 7.78932e-40 0)
(-1.47953e-41 6.94757e-40 0)
(-1.33448e-41 -1.52099e-39 0)
(-2.5967e-41 -1.47891e-39 0)
(-2.5967e-41 1.47891e-39 0)
(-1.33448e-41 1.52099e-39 0)
(-1.47953e-41 -6.94757e-40 0)
(-3.81626e-41 -7.78932e-40 0)
(-3.66987e-41 -4.73276e-41 0)
(-2.32329e-42 -5.50031e-42 0)
(-2.76405e-43 -2.79033e-43 0)
(-2.89953e-44 4.96133e-47 0)
(-2.77415e-43 2.79908e-43 0)
(-2.3367e-42 5.51975e-42 0)
(-3.69595e-41 4.75871e-41 0)
(-4.02094e-41 7.84151e-40 0)
(-4.91552e-41 7.36563e-40 0)
(-1.45189e-41 -7.89691e-40 0)
(1.865e-47 -1.56886e-39 0)
(1.45194e-41 -7.89691e-40 0)
(4.91659e-41 7.36556e-40 0)
(4.04304e-41 7.83886e-40 0)
(3.85308e-41 3.77739e-41 0)
(-1.91541e-43 3.80069e-43 0)
(-2.68605e-42 3.23246e-42 0)
(-2.39636e-42 5.10013e-41 0)
(5.31059e-42 4.52351e-41 0)
(5.17629e-42 -9.98812e-41 0)
(-5.17629e-42 -9.98812e-41 0)
(-5.31058e-42 4.52351e-41 0)
(2.39645e-42 5.10017e-41 0)
(2.6832e-42 3.23893e-42 0)
(1.72394e-43 3.83803e-43 0)
(2.09769e-44 2.01706e-44 0)
(1.11011e-45 1.48271e-45 0)
(-4.23104e-52 1.37197e-46 0)
(-1.11012e-45 1.48272e-45 0)
(-2.09771e-44 2.01708e-44 0)
(-1.72397e-43 3.83807e-43 0)
(-2.68328e-42 3.23899e-42 0)
(-2.39757e-42 5.10032e-41 0)
(5.28952e-42 4.52553e-41 0)
(5.00278e-42 -9.94959e-41 0)
(-7.88055e-42 -9.66221e-41 0)
(-7.88055e-42 9.66221e-41 0)
(5.00278e-42 9.94959e-41 0)
(5.28952e-42 -4.52553e-41 0)
(-2.39757e-42 -5.10032e-41 0)
(-2.68328e-42 -3.23899e-42 0)
(-1.72401e-43 -3.83803e-43 0)
(-2.10601e-44 -2.01018e-44 0)
(-2.23157e-45 3.68749e-48 0)
(-2.11385e-44 2.01667e-44 0)
(-1.73432e-43 3.85213e-43 0)
(-2.70314e-42 3.25768e-42 0)
(-2.5489e-42 5.13667e-41 0)
(2.77984e-42 4.8109e-41 0)
(5.31058e-42 -5.17534e-41 0)
(2.10276e-48 -1.02774e-40 0)
(-5.31053e-42 -5.17535e-41 0)
(-2.77884e-42 4.81082e-41 0)
(2.56931e-42 5.13462e-41 0)
(2.84255e-42 2.57429e-42 0)
(1.91965e-43 1.07464e-42 0)
(-1.7132e-43 1.39397e-43 0)
(-1.33295e-43 3.74477e-42 0)
(4.31284e-43 3.32315e-42 0)
(4.15421e-43 -7.34691e-42 0)
(-4.15404e-43 -7.34689e-42 0)
(-4.31052e-43 3.32356e-42 0)
(1.36996e-43 3.75137e-42 0)
(1.62116e-43 2.41013e-43 0)
(1.0723e-44 2.92734e-44 0)
(1.31666e-45 1.55378e-45 0)
(7.10994e-47 1.15338e-46 0)
(-2.76899e-53 1.07303e-47 0)
(-7.11e-47 1.15339e-46 0)
(-1.31667e-45 1.55379e-45 0)
(-1.07233e-44 2.92737e-44 0)
(-1.62121e-43 2.41019e-43 0)
(-1.37068e-43 3.75149e-42 0)
(4.2973e-43 3.32512e-42 0)
(4.04611e-43 -7.3175e-42 0)
(-5.78843e-43 -7.10432e-42 0)
(-5.78843e-43 7.10432e-42 0)
(4.04611e-43 7.3175e-42 0)
(4.2973e-43 -3.32512e-42 0)
(-1.37068e-43 -3.75149e-42 0)
(-1.62121e-43 -2.41019e-43 0)
(-1.07235e-44 -2.92734e-44 0)
(-1.322e-45 -1.5484e-45 0)
(-1.42938e-46 2.89001e-49 0)
(-1.32704e-45 1.55348e-45 0)
(-1.07895e-44 2.93831e-44 0)
(-1.63366e-43 2.42457e-43 0)
(-1.46469e-43 3.7792e-42 0)
(2.78409e-43 3.53674e-42 0)
(4.31052e-43 -3.8087e-42 0)
(1.62429e-49 -7.56153e-42 0)
(-4.31048e-43 -3.80871e-42 0)
(-2.78338e-43 3.53666e-42 0)
(1.47869e-43 3.77749e-42 0)
(1.72787e-43 1.90485e-43 0)
(1.0596e-41 3.11614e-42 0)
(-1.57044e-43 -1.41128e-42 0)
(7.92127e-44 1.3105e-43 0)
(3.4662e-44 1.95898e-43 0)
(2.88192e-44 -4.44837e-43 0)
(-2.85108e-44 -4.44643e-43 0)
(-2.96826e-44 2.00531e-43 0)
(8.50073e-45 2.27149e-43 0)
(1.02644e-44 1.50086e-44 0)
(6.85416e-46 1.83848e-45 0)
(8.49509e-47 9.95719e-47 0)
(4.61864e-48 7.40926e-48 0)
(-1.79754e-54 6.98594e-49 0)
(-4.61868e-48 7.4093e-48 0)
(-8.49518e-47 9.95727e-47 0)
(-6.85432e-46 1.8385e-45 0)
(-1.02647e-44 1.50089e-44 0)
(-8.50536e-45 2.27157e-43 0)
(2.95979e-44 2.00631e-43 0)
(2.78342e-44 -4.42789e-43 0)
(-3.8874e-44 -4.29526e-43 0)
(-3.8874e-44 4.29526e-43 0)
(2.78342e-44 4.42789e-43 0)
(2.95979e-44 -2.00631e-43 0)
(-8.50536e-45 -2.27157e-43 0)
(-1.02647e-44 -1.50089e-44 0)
(-6.85449e-46 -1.83848e-45 0)
(-8.52986e-47 -9.92218e-47 0)
(-9.28554e-48 1.87979e-50 0)
(-8.56262e-47 9.95522e-47 0)
(-6.89738e-46 1.84552e-45 0)
(-1.0345e-44 1.51011e-44 0)
(-9.10548e-45 2.28895e-43 0)
(2.00236e-44 2.13794e-43 0)
(2.96832e-44 -2.30748e-43 0)
(1.23786e-50 -4.5799e-43 0)
(-2.96829e-44 -2.30748e-43 0)
(-2.00186e-44 2.13788e-43 0)
(9.20356e-45 2.2878e-43 0)
(1.10002e-44 1.18444e-44 0)
(4.57128e-40 3.62951e-40 0)
(2.56921e-41 -2.94083e-41 0)
(1.56648e-42 -1.98755e-42 0)
(7.83236e-44 -6.60194e-44 0)
(5.04758e-45 -3.1362e-44 0)
(-1.47125e-45 -2.82091e-44 0)
(-1.68063e-45 1.26547e-44 0)
(4.68305e-46 1.43547e-44 0)
(5.70605e-46 9.57232e-46 0)
(3.88504e-47 1.1826e-46 0)
(4.82391e-48 6.44833e-48 0)
(2.65811e-49 4.8055e-49 0)
(-9.65053e-56 4.54639e-50 0)
(-2.65813e-49 4.80553e-49 0)
(-4.82395e-48 6.44838e-48 0)
(-3.88511e-47 1.18262e-46 0)
(-5.70618e-46 9.57259e-46 0)
(-4.68358e-46 1.43553e-44 0)
(1.68143e-45 1.26653e-44 0)
(1.57892e-45 -2.79774e-44 0)
(-2.19348e-45 -2.71324e-44 0)
(-2.19348e-45 2.71324e-44 0)
(1.57892e-45 2.79774e-44 0)
(1.68143e-45 -1.26653e-44 0)
(-4.68358e-46 -1.43553e-44 0)
(-5.70618e-46 -9.57259e-46 0)
(-3.88521e-47 -1.1826e-46 0)
(-4.84388e-48 -6.42555e-48 0)
(-5.34419e-49 1.2205e-51 0)
(-4.8627e-48 6.44705e-48 0)
(-3.9099e-47 1.18717e-46 0)
(-5.75174e-46 9.63227e-46 0)
(-5.02364e-46 1.44671e-44 0)
(1.14995e-45 1.35038e-44 0)
(1.68627e-45 -1.45863e-44 0)
(7.90136e-52 -2.89471e-44 0)
(-1.68625e-45 -1.45863e-44 0)
(-1.14965e-45 1.35034e-44 0)
(5.08202e-46 1.44592e-44 0)
(6.14183e-46 7.54153e-46 0)
(1.83539e-35 -2.00017e-34 0)
(4.78866e-35 -2.17077e-35 0)
(4.12728e-36 -1.4613e-35 0)
(1.60513e-36 -8.66509e-37 0)
(9.48277e-38 -8.52678e-38 0)
(1.05371e-38 -4.32749e-39 0)
(5.49653e-40 -3.00467e-40 0)
(4.04837e-41 -1.40379e-41 0)
(1.91727e-42 -7.91914e-43 0)
(1.10762e-43 -3.54601e-44 0)
(4.66852e-45 -9.7056e-46 0)
(2.88805e-46 1.84642e-45 0)
(1.46937e-46 -5.9084e-46 0)
(-5.07036e-47 -1.26634e-45 0)
(-8.41224e-47 5.95044e-46 0)
(2.3549e-47 6.78635e-46 0)
(2.91316e-47 5.11477e-47 0)
(2.21134e-48 6.58502e-48 0)
(2.82862e-49 3.98268e-49 0)
(1.71346e-50 3.09393e-50 0)
(1.31858e-51 1.60602e-51 0)
(6.8306e-53 9.43396e-53 0)
(3.9719e-54 4.32173e-54 0)
(1.89832e-55 2.01109e-55 0)
(1.90034e-55 -2.0147e-55 0)
(3.97568e-54 -4.32998e-54 0)
(6.83254e-53 -9.45401e-53 0)
(1.31726e-51 -1.61011e-51 0)
(1.70397e-50 -3.10287e-50 0)
(2.79121e-49 -3.9976e-49 0)
(2.08415e-48 -6.61376e-48 0)
(2.51996e-47 -5.14982e-47 0)
(-8.40589e-47 -6.84354e-46 0)
(-3.06435e-45 -6.27504e-46 0)
(-7.05032e-44 9.47789e-46 0)
(-1.80841e-42 7.84606e-45 0)
(-3.72433e-41 1.65864e-43 0)
(-8.95799e-40 3.26583e-42 0)
(-1.56965e-38 5.76967e-41 0)
(-3.56163e-37 1.47861e-40 0)
(-5.01387e-36 -5.10375e-38 0)
(-1.08781e-34 -3.88307e-36 0)
(-1.05301e-33 -1.86931e-34 0)
(-2.14409e-32 -6.39647e-33 0)
(3.6036e-35 -1.26556e-31 0)
(2.14723e-32 -6.4152e-33 0)
(1.43718e-33 -1.53435e-33 0)
(2.13309e-33 -3.87547e-34 0)
(1.19721e-34 -3.3979e-34 0)
(1.88812e-35 -1.75316e-35 0)
(1.01363e-36 -1.72016e-36 0)
(9.46041e-38 -8.13885e-38 0)
(4.76299e-39 -5.6457e-39 0)
(3.29577e-40 -2.52507e-40 0)
(1.53934e-41 -1.42127e-41 0)
(8.67253e-43 -5.96008e-43 0)
(3.7474e-44 -2.86626e-44 0)
(1.80907e-45 -1.05032e-45 0)
(7.66884e-47 -7.00502e-47 0)
(1.45717e-48 -4.99521e-47 0)
(-2.55426e-48 2.25794e-47 0)
(7.48098e-49 2.58456e-47 0)
(9.23306e-49 1.95656e-48 0)
(7.09966e-50 2.50398e-49 0)
(9.11206e-51 1.51614e-50 0)
(5.57054e-52 1.16832e-51 0)
(4.28736e-53 6.05333e-53 0)
(2.23322e-54 3.52353e-54 0)
(1.29607e-55 1.6074e-55 0)
(6.20943e-57 7.40983e-57 0)
(6.24834e-57 -7.41039e-57 0)
(1.30901e-55 -1.60603e-55 0)
(2.27306e-54 -3.51546e-54 0)
(4.41238e-53 -6.01669e-53 0)
(5.9417e-52 -1.1545e-51 0)
(1.02316e-50 -1.46832e-50 0)
(1.02425e-49 -2.34941e-49 0)
(1.82058e-48 -1.49447e-48 0)
(2.40651e-47 -1.23236e-47 0)
(6.20441e-46 3.36929e-46 0)
(1.4669e-44 9.74865e-45 0)
(3.64471e-43 2.30044e-43 0)
(7.59004e-42 5.73932e-42 0)
(1.74975e-40 1.18148e-40 0)
(3.11973e-39 2.58229e-39 0)
(6.69167e-38 3.21527e-38 0)
(9.66494e-37 -2.01035e-37 0)
(1.94147e-35 -6.29292e-35 0)
(1.95545e-34 -3.64915e-33 0)
(3.54605e-33 -1.53153e-31 0)
(1.96856e-33 -4.28201e-30 0)
(-1.46645e-33 -1.53716e-31 0)
(6.21541e-32 -3.72927e-32 0)
(6.63119e-32 -1.37499e-33 0)
(2.72742e-33 -3.41212e-35 0)
(4.35559e-34 -6.44371e-37 0)
(2.06356e-35 -6.41222e-39 0)
(1.93431e-36 6.5543e-41 0)
(9.09604e-38 1.16717e-41 0)
(6.30056e-39 5.41145e-43 0)
(2.81835e-40 2.77031e-44 0)
(1.58701e-41 1.07684e-45 0)
(6.65693e-43 4.75039e-47 0)
(3.20549e-44 4.04135e-48 0)
(1.2554e-45 -6.54965e-49 0)
(5.32329e-47 -1.55152e-48 0)
(1.85638e-48 7.29245e-49 0)
(9.95649e-50 8.33857e-49 0)
(3.38869e-50 6.39778e-50 0)
(2.50565e-51 8.1954e-51 0)
(3.11052e-52 5.00722e-52 0)
(1.89371e-53 3.85278e-53 0)
(1.44173e-54 2.00649e-54 0)
(7.48694e-56 1.16439e-55 0)
(4.30546e-57 5.3225e-57 0)
(2.1524e-58 2.44307e-58 0)
(5.64987e-58 -2.45531e-58 0)
(1.694e-56 -5.36037e-57 0)
(4.98641e-55 -1.17675e-55 0)
(1.53963e-53 -2.04487e-54 0)
(4.53879e-52 -3.97512e-53 0)
(1.3706e-50 -5.37242e-52 0)
(3.87878e-49 -9.3165e-51 0)
(1.11033e-47 -9.55104e-50 0)
(2.91389e-46 -1.75253e-48 0)
(7.78421e-45 -2.45516e-47 0)
(1.84985e-43 -6.50543e-46 0)
(4.58604e-42 -1.52322e-44 0)
(9.65865e-41 -3.87901e-43 0)
(2.21963e-39 -7.74229e-42 0)
(4.02382e-38 -1.65446e-40 0)
(8.59117e-37 -1.15911e-39 0)
(1.27362e-35 8.05634e-38 0)
(2.54252e-34 8.43887e-36 0)
(2.69202e-33 4.5335e-34 0)
(4.8526e-32 1.83857e-32 0)
(6.66004e-32 5.05135e-31 0)
(2.07671e-32 1.83731e-32 0)
(2.15384e-33 -3.69867e-32 0)
(1.77219e-33 -1.05005e-33 0)
(1.04056e-34 3.03216e-34 0)
(1.70445e-35 1.68168e-35 0)
(9.33357e-37 1.71059e-36 0)
(8.85656e-38 8.13377e-38 0)
(4.50386e-39 5.65097e-39 0)
(3.14309e-40 2.52789e-40 0)
(1.47673e-41 1.42276e-41 0)
(8.36263e-43 5.96546e-43 0)
(3.62797e-44 2.87139e-44 0)
(1.75554e-45 1.12414e-45 0)
(7.04523e-47 4.76821e-47 0)
(3.00266e-48 1.68972e-48 0)
(1.09083e-49 9.13755e-50 0)
(5.04778e-51 3.07085e-50 0)
(1.09524e-51 2.26721e-51 0)
(7.896e-53 2.80748e-52 0)
(9.53921e-54 1.70812e-53 0)