/*--------------------------------*- C++ -*----------------------------------*\
| =========                 |                                                 |
| \\      /  F ield         | OpenFOAM: The Open Source CFD Toolbox           |
|  \\    /   O peration     | Version:  2.4.0                                 |
|   \\  /    A nd           | Web:      www.OpenFOAM.org                      |
|    \\/     M anipulation  |                                                 |
\*---------------------------------------------------------------------------*/
FoamFile
{
    version     2.0;
    format      ascii;
    class       surfaceScalarField;
    location    "0.55";
    object      phi;
}
// * * * * * * * * * * * * * * * * * * * * * * * * * * * * * * * * * * * * * //

dimensions      [0 3 -1 0 0 0 0];

internalField   nonuniform List<scalar> 
3731
(
5.79327e-45
-1.02484e-42
-1.3175e-43
6.51005e-44
-9.28969e-42
-1.18982e-42
6.11723e-43
-8.08967e-41
-1.02955e-41
5.41629e-42
-6.55219e-40
-8.31444e-41
4.61529e-41
-5.14735e-39
-6.47554e-40
3.61952e-40
-3.62223e-38
-4.55859e-39
2.753e-39
-2.55267e-37
-3.15891e-38
1.81577e-38
-1.46134e-36
-1.82736e-37
1.19849e-37
-9.52479e-36
-1.12814e-36
5.53604e-37
-3.57503e-35
-4.44342e-36
-1.90349e-39
-3.59553e-41
-1.12296e-38
-2.44964e-40
-1.59842e-38
-2.27113e-39
-4.54989e-37
-1.84288e-39
2.86286e-46
4.39794e-39
4.54989e-37
4.39794e-39
1.59842e-38
-1.84287e-39
1.12308e-38
-2.27112e-39
1.90559e-39
-2.4492e-40
1.79915e-40
-3.53214e-41
2.13947e-41
-3.32808e-42
1.72871e-42
-3.51972e-43
-1.72882e-42
-5.95704e-44
-2.1396e-41
-3.51988e-43
-1.79931e-40
-3.32829e-42
-1.90578e-39
-3.53241e-41
-1.12328e-38
-2.4495e-40
-1.60058e-38
-2.27147e-39
-4.5517e-37
-1.84623e-39
-1.92719e-39
4.36227e-39
4.43576e-37
4.14966e-39
-1.92719e-39
-4.14966e-39
-4.5517e-37
-4.36227e-39
-1.60058e-38
1.84623e-39
-1.12328e-38
2.27147e-39
-1.9058e-39
2.4495e-40
-1.80119e-40
3.53214e-41
-2.33406e-41
3.29811e-42
-2.34974e-41
-2.42148e-45
-1.81846e-40
-3.32544e-42
-1.92528e-39
-3.56408e-41
-1.13911e-38
-2.47925e-40
-1.77296e-38
-2.30343e-39
-4.64474e-37
-2.05548e-39
-6.49873e-39
2.33943e-39
6.49855e-39
4.61358e-39
4.64473e-37
2.33941e-39
1.77087e-38
-2.05581e-39
1.12724e-38
-2.30583e-39
-2.64266e-40
-4.44713e-40
3.83992e-41
-2.62705e-39
3.36226e-40
-2.08497e-38
3.0023e-39
-3.5395e-38
2.40813e-39
1.35332e-46
-5.79642e-39
3.5395e-38
-5.79642e-39
2.08497e-38
2.40813e-39
2.62746e-39
3.00229e-39
4.46427e-40
3.36467e-40
4.77619e-41
4.49909e-41
5.75761e-42
4.10114e-42
4.9262e-43
4.08996e-43
-4.92653e-43
6.6894e-44
-5.758e-42
4.09012e-43
-4.77665e-41
4.10135e-42
-4.46482e-40
4.49937e-41
-2.62802e-39
3.36501e-40
-2.08555e-38
3.0027e-39
-3.54433e-38
2.41226e-39
-4.52244e-40
-5.75102e-39
3.27192e-38
-5.45582e-39
-4.52244e-40
5.45582e-39
-3.54433e-38
5.75102e-39
-2.08555e-38
-2.41226e-39
-2.62802e-39
-3.0027e-39
-4.46486e-40
-3.36501e-40
-4.78212e-41
-4.49909e-41
-6.3134e-42
-4.06749e-42
-6.35852e-42
2.62331e-45
-4.83131e-41
4.09828e-42
-4.51697e-40
4.53634e-41
-2.66996e-39
3.40193e-40
-2.12536e-38
3.04356e-39
-3.76186e-38
2.70333e-39
-1.86262e-38
-3.08933e-39
1.86261e-38
-6.09538e-39
3.76181e-38
-3.08931e-39
2.12474e-38
2.70354e-39
2.63149e-39
3.04181e-39
2.6338e-40
-9.00067e-41
1.01444e-41
-3.92254e-40
8.56635e-41
-2.33158e-39
6.42769e-40
-3.79899e-39
4.92075e-40
1.63237e-48
-1.23386e-39
3.79899e-39
-1.23386e-39
2.33158e-39
4.92075e-40
3.92294e-40
6.42767e-40
8.98917e-41
8.5729e-41
1.096e-41
1.19816e-41
1.47791e-42
1.17265e-42
1.34065e-43
1.20207e-43
-1.34075e-43
2.04483e-44
-1.47803e-42
1.20212e-43
-1.09614e-41
1.17272e-42
-8.99074e-41
1.19825e-41
-3.92445e-40
8.57393e-41
-2.33308e-39
6.42888e-40
-3.8101e-39
4.93258e-40
-9.13867e-41
-1.22175e-39
3.39558e-39
-1.14694e-39
-9.13867e-41
1.14694e-39
-3.8101e-39
1.22175e-39
-2.33308e-39
-4.93258e-40
-3.92445e-40
-6.42888e-40
-8.99088e-41
-8.57392e-41
-1.09772e-41
-1.19816e-41
-1.63032e-42
-1.16236e-42
-1.64326e-42
8.15771e-46
-1.1111e-41
1.17176e-42
-9.12371e-41
1.20906e-41
-4.0191e-40
8.67916e-41
-2.41186e-39
6.53686e-40
-4.11101e-39
5.66885e-40
-2.01956e-39
-6.65899e-40
2.01956e-39
-1.30974e-39
4.11095e-39
-6.65892e-40
2.41124e-39
5.66943e-40
3.9813e-40
6.53225e-40
6.69408e-41
-1.28928e-41
2.46803e-42
-4.34593e-41
1.9349e-41
-1.98602e-40
1.36507e-40
-3.10748e-40
1.02804e-40
-3.2775e-48
-2.61949e-40
3.10748e-40
-2.61949e-40
1.98601e-40
1.02804e-40
4.34594e-41
1.36507e-40
1.28271e-41
1.93714e-41
1.74735e-42
2.92983e-42
2.53259e-43
3.02042e-43
2.41069e-44
3.24803e-44
-2.4109e-44
5.71127e-45
-2.53283e-43
3.24818e-44
-1.74762e-42
3.02062e-43
-1.283e-41
2.93009e-42
-4.34867e-41
1.93743e-41
-1.98857e-40
1.36539e-40
-3.12523e-40
1.03109e-40
-1.30836e-41
-2.58987e-40
2.65514e-40
-2.42273e-40
-1.30836e-41
2.42273e-40
-3.12523e-40
2.58987e-40
-1.98857e-40
-1.03109e-40
-4.34867e-41
-1.36539e-40
-1.28303e-41
-1.93742e-41
-1.75058e-42
-2.92983e-42
-2.80806e-43
-2.99168e-43
-2.83208e-43
2.33829e-46
-1.77464e-42
3.01786e-43
-1.30566e-41
2.95918e-42
-4.49776e-41
1.96438e-41
-2.0991e-40
1.39164e-40
-3.42899e-40
1.19518e-40
-1.6645e-40
-1.42157e-40
1.6645e-40
-2.78938e-40
3.42898e-40
-1.42156e-40
2.09898e-40
1.19523e-40
4.48568e-41
1.38997e-40
1.49412e-41
-1.80214e-42
4.21235e-43
-4.42583e-42
3.15768e-42
-1.27862e-41
2.09198e-41
-1.83203e-41
1.54556e-41
-1.42518e-48
-4.01027e-41
1.83203e-41
-4.01027e-41
1.2786e-41
1.54556e-41
4.42454e-42
2.09199e-41
1.78212e-42
3.16243e-42
2.65082e-43
5.03796e-43
4.11579e-44
5.43518e-44
4.06282e-45
6.03777e-45
-4.0632e-45
1.09219e-45
-4.11623e-44
6.03809e-45
-2.6513e-43
5.43559e-44
-1.78263e-42
5.03846e-43
-4.42916e-42
3.16298e-42
-1.28277e-41
2.0926e-41
-1.859e-41
1.55105e-41
-1.82384e-42
-3.95928e-41
1.3626e-41
-3.68853e-41
-1.82384e-42
3.68853e-41
-1.859e-41
3.95928e-41
-1.28277e-41
-1.55105e-41
-4.42916e-42
-2.0926e-41
-1.78268e-42
-3.16298e-42
-2.65646e-43
-5.03796e-43
-4.58236e-44
-5.38021e-44
-4.6241e-44
4.55353e-47
-2.697e-43
5.4302e-44
-1.81927e-42
5.09234e-43
-4.65253e-42
3.21129e-42
-1.43401e-41
2.13749e-41
-2.11907e-41
1.81631e-41
-9.91555e-42
-2.18902e-41
9.91561e-42
-4.28595e-41
2.1192e-41
-2.18902e-41
1.43537e-41
1.81628e-41
4.71659e-42
2.13388e-41
2.40779e-42
-2.25518e-43
6.78469e-44
-4.28939e-43
4.82761e-43
-5.63422e-43
3.09309e-42
-5.82451e-43
2.26174e-42
-2.24639e-49
-5.93082e-42
5.82448e-43
-5.93082e-42
5.63379e-43
2.26176e-42
4.2863e-43
3.09325e-42
2.21904e-43
4.8459e-43
3.52946e-44
8.10435e-44
5.74535e-45
9.04238e-45
5.84234e-46
1.03476e-45
-5.84294e-46
1.91313e-46
-5.74601e-45
1.03481e-45
-3.53017e-44
9.04311e-45
-2.21979e-43
8.10524e-44
-4.29296e-43
4.84687e-43
-5.69207e-43
3.09429e-42
-6.1841e-43
2.2709e-42
-2.27732e-43
-5.84874e-42
1.17857e-43
-5.43709e-42
-2.27732e-43
5.43709e-42
-6.1841e-43
5.84874e-42
-5.69207e-43
-2.2709e-42
-4.29297e-43
-3.09429e-42
-2.21986e-43
-4.84686e-43
-3.5378e-44
-8.10434e-44
-6.41886e-45
-8.94606e-45
-6.48024e-45
8.10688e-48
-3.5961e-44
9.03349e-45
-2.27072e-43
8.1973e-44
-4.58764e-43
4.92693e-43
-7.55149e-43
3.16619e-42
-8.19308e-43
2.67341e-42
-3.26518e-43
-3.24922e-42
3.26542e-43
-6.35066e-42
8.19635e-43
-3.24923e-42
7.5842e-43
2.67314e-42
4.74576e-43
3.15909e-42
3.63939e-43
-2.72905e-44
2.3842e-44
-4.37517e-44
5.56968e-44
1.23687e-45
4.00977e-43
4.32827e-44
2.90725e-43
7.70731e-49
-7.70973e-43
-4.32766e-44
-7.70963e-43
-1.19347e-45
2.90854e-43
4.37222e-44
4.02144e-43
2.72149e-44
6.51987e-44
4.52267e-45
1.13009e-44
7.62935e-46
1.29787e-45
7.92589e-47
1.51926e-46
-7.92674e-47
2.86263e-47
-7.63029e-46
1.51935e-46
-4.52368e-45
1.29798e-45
-2.72254e-44
1.13022e-44
-4.38129e-44
6.52131e-44
4.19056e-46
4.02296e-43
3.86633e-44
2.92166e-43
-2.79894e-44
-7.59509e-43
-9.16124e-44
-7.04451e-43
-2.79894e-44
7.04451e-43
3.86633e-44
7.59509e-43
4.19048e-46
-2.92166e-43
-4.3813e-44
-4.02296e-43
-2.72264e-44
-6.5213e-44
-4.53426e-45
-1.13009e-44
-8.54598e-46
-1.28346e-45
-8.63076e-46
1.22879e-48
-4.61334e-45
1.29652e-45
-2.78997e-44
1.14371e-44
-4.75613e-44
6.63589e-44
-2.21825e-44
4.12284e-43
2.29304e-44
3.45912e-43
2.15401e-44
-4.23876e-43
-2.15348e-44
-8.27193e-43
-2.28704e-44
-4.2388e-43
2.2759e-44
3.45848e-43
5.03437e-44
4.11148e-43
4.84216e-44
8.76778e-45
-3.24294e-44
-3.03591e-45
-7.08748e-44
4.4304e-45
4.10434e-44
1.10294e-44
3.52377e-44
7.47954e-48
-9.65433e-44
-1.09623e-44
-9.64787e-44
-3.85862e-45
3.61217e-44
4.5193e-45
5.03127e-44
3.12647e-45
8.35068e-45
5.3654e-46
1.49036e-45
9.28009e-47
1.74913e-46
9.81276e-48
2.08583e-47
-9.81387e-48
3.98811e-48
-9.28131e-47
2.08596e-47
-5.36669e-46
1.74929e-46
-3.12779e-45
1.49055e-45
-4.53054e-45
8.35269e-45
3.76443e-45
5.03336e-44
1.04152e-44
3.6299e-44
-3.22072e-45
-9.49624e-44
-1.60301e-44
-8.7946e-44
-3.22072e-45
8.7946e-44
1.04152e-44
9.49624e-44
3.76443e-45
-3.6299e-44
-4.53055e-45
-5.03335e-44
-3.12792e-45
-8.35267e-45
-5.38e-46
-1.49036e-45
-1.04178e-46
-1.72904e-46
-1.05243e-46
1.73013e-49
-5.4779e-46
1.74723e-46
-3.2096e-45
1.50902e-45
-4.97286e-45
8.50671e-45
1.18576e-45
5.1647e-44
9.11659e-45
4.31384e-44
5.70512e-45
-5.31772e-44
-5.70426e-45
-1.03648e-43
-9.10776e-45
-5.31781e-44
-1.10391e-45
4.31267e-44
5.36432e-45
5.14795e-44
6.14094e-45
2.82553e-43
2.2376e-42
2.39063e-44
-6.56004e-43
7.09079e-45
-6.962e-44
2.17396e-45
-1.92036e-45
6.67966e-47
-1.1633e-44
-1.50681e-45
-1.12162e-44
-6.12722e-46
4.1556e-45
4.76847e-46
5.83346e-45
3.48312e-46
9.89576e-46
6.10819e-47
1.80546e-46
1.07634e-47
2.15848e-47
1.15338e-48
2.61166e-48
-1.15352e-48
5.05682e-49
-1.07649e-47
2.61183e-48
-6.10972e-47
2.15869e-47
-3.48467e-46
1.80571e-46
-4.78141e-46
9.89838e-46
6.02217e-46
5.8362e-45
1.44989e-45
4.17944e-45
-3.59246e-46
-1.10026e-44
-2.05153e-45
-1.01743e-44
-3.59246e-46
1.01743e-44
1.44989e-45
1.10026e-44
6.02217e-46
-4.17944e-45
-4.78143e-46
-5.8362e-45
-3.48483e-46
-9.89836e-46
-6.12559e-47
-1.80546e-46
-1.21035e-47
-2.13302e-47
-1.223e-47
2.21259e-50
-6.24064e-47
2.15605e-47
-3.57937e-46
1.82879e-46
-5.2829e-46
1.00881e-45
3.16315e-46
5.99491e-45
1.33232e-45
4.98586e-45
7.93141e-46
-6.18044e-45
-7.9302e-46
-1.20335e-44
-1.33115e-45
-6.18058e-45
-3.05766e-46
4.98412e-45
5.7843e-46
5.97286e-45
7.22117e-46
5.75196e-42
-1.13336e-41
5.71552e-43
-1.15553e-42
6.39079e-44
-9.84841e-44
5.61086e-45
-6.84047e-45
4.55351e-46
-1.94283e-45
-1.36738e-46
-1.44415e-45
-6.98065e-47
5.18071e-46
4.90613e-47
7.34085e-46
3.6692e-47
1.26531e-46
6.54779e-48
2.34718e-47
1.17006e-48
2.84479e-48
1.26828e-49
3.48011e-49
-1.2684e-49
6.80225e-50
-1.17018e-48
3.48036e-49
-6.54882e-48
2.84511e-48
-3.66983e-47
2.34757e-47
-4.90368e-47
1.26575e-46
7.11101e-47
7.34585e-46
1.64445e-46
5.23356e-46
-3.78701e-47
-1.38413e-45
-2.26722e-46
-1.27853e-45
-3.78701e-47
1.27853e-45
1.64445e-46
1.38413e-45
7.111e-47
-5.23356e-46
-4.90369e-47
-7.34585e-46
-3.67001e-47
-1.26574e-46
-6.56646e-48
-2.34724e-47
-1.31762e-48
-2.81056e-48
-1.33165e-48
2.99556e-51
-6.69297e-48
2.84153e-48
-3.77259e-47
2.37828e-47
-5.4395e-47
1.29071e-46
4.11223e-47
7.55178e-46
1.53424e-46
6.26076e-46
9.00144e-47
-7.79316e-46
-8.99993e-47
-1.51612e-45
-1.53284e-46
-7.79337e-46
-3.98941e-47
6.25812e-46
6.01924e-47
7.5212e-46
9.17817e-47
6.11221e-36
-2.18349e-35
-4.22353e-35
6.6767e-36
-2.42461e-37
-1.77359e-33
-3.32084e-35
-9.4158e-37
1.75786e-35
1.99212e-33
4.87195e-35
-1.31449e-35
1.24452e-36
3.30068e-35
4.86201e-35
7.12142e-37
6.83252e-36
5.92592e-35
7.73702e-36
7.54546e-36
-6.86396e-37
1.01934e-34
1.33059e-35
-7.81206e-37
-1.28239e-35
2.03995e-34
9.31523e-35
-1.42877e-35
-2.29e-35
3.24144e-33
2.34824e-34
-2.54419e-35
-7.09674e-37
3.44369e-33
2.39202e-34
-7.87558e-37
2.28354e-35
9.78943e-35
2.53688e-35
1.27627e-35
1.51782e-35
2.16416e-36
1.68214e-36
2.30179e-37
2.15074e-37
3.19398e-38
1.90731e-38
5.14997e-38
1.3955e-39
5.64947e-37
-5.37514e-39
4.78019e-36
-5.6949e-38
5.11221e-35
-6.52879e-37
2.96224e-34
-4.94558e-36
4.46929e-34
-4.65718e-35
1.16724e-32
-4.22272e-35
4.46929e-34
4.22272e-35
2.96219e-34
4.65716e-35
5.10884e-35
4.9381e-36
4.46274e-36
4.46852e-37
2.76895e-37
-4.0709e-36
3.368e-37
-1.06373e-34
3.2208e-37
-4.12742e-36
3.40808e-38
-2.0599e-37
4.49911e-39
-7.45216e-39
4.99112e-40
8.4377e-41
7.76478e-40
2.05857e-39
1.24615e-38
8.61774e-37
-2.73546e-36
1.33242e-37
-1.54477e-37
1.43486e-38
-7.5662e-39
-3.48316e-40
1.6981e-39
-1.36661e-37
-2.09511e-36
-1.70738e-38
-1.10342e-37
-1.60468e-39
-4.46049e-39
-1.27318e-40
-1.23291e-40
-1.00987e-36
3.10548e-36
-1.17073e-37
1.63947e-37
-1.09688e-38
6.41301e-39
1.49657e-40
-7.5097e-40
9.9253e-38
3.17627e-36
1.97015e-38
1.72823e-37
2.55168e-39
7.36432e-39
2.38393e-40
3.7472e-40
1.05513e-36
7.7185e-37
1.63236e-37
6.51096e-38
1.80318e-38
5.85552e-39
5.03419e-40
2.13392e-39
-1.2917e-37
1.36234e-36
-2.15874e-38
1.17114e-37
-2.58118e-39
1.07115e-38
9.24556e-40
-3.1834e-40
-2.06264e-36
6.47733e-36
-3.21591e-37
3.80891e-37
-3.59595e-38
1.90597e-38
8.6949e-40
-4.26281e-39
-3.59855e-36
1.52515e-35
-5.5724e-37
8.16129e-37
-6.17361e-38
3.09547e-38
5.43277e-40
-7.28714e-39
-1.10472e-37
1.55188e-35
-1.70581e-38
8.29133e-37
-1.88246e-39
3.12789e-38
5.29448e-40
-2.21782e-40
3.58686e-36
6.76379e-36
5.55398e-37
3.94133e-37
6.15246e-38
1.9259e-38
8.36701e-40
7.26202e-39
2.19054e-36
1.26183e-36
3.41715e-37
1.05105e-37
3.82201e-38
9.25338e-39
7.79297e-40
4.5328e-39
2.75534e-37
2.93708e-37
4.52838e-38
3.08659e-38
5.36131e-39
3.40636e-39
3.26183e-40
6.55965e-40
3.66713e-38
3.54275e-38
6.46632e-39
4.11483e-39
8.0022e-40
4.86802e-40
4.9077e-41
1.02021e-40
3.40187e-39
5.44939e-39
6.26552e-40
7.31759e-40
8.01175e-41
9.26124e-41
1.02234e-41
1.04843e-41
-1.59453e-40
8.65908e-39
-3.28035e-41
1.62026e-39
-1.04786e-41
2.08853e-40
2.65618e-41
-1.52588e-42
-6.24586e-39
8.9645e-38
-1.18679e-39
1.61377e-38
-2.25669e-40
1.98625e-39
2.45843e-40
-3.0937e-41
-6.44217e-38
7.35501e-37
-1.1938e-38
1.18918e-37
-2.17607e-39
1.3713e-38
1.59973e-39
-2.90321e-40
-7.30751e-37
7.03246e-36
-1.27697e-37
1.00473e-36
-2.22771e-38
1.0454e-37
1.13633e-38
-2.85491e-39
-5.49618e-36
3.89306e-35
-9.20576e-37
3.90789e-36
-1.49227e-37
3.05379e-37
2.45451e-38
-1.8266e-38
-5.06872e-35
3.13078e-34
-7.40701e-36
2.26538e-35
-1.14319e-36
1.25002e-36
5.22018e-38
-1.32218e-37
-4.58631e-35
5.61054e-34
-6.6033e-36
3.92929e-35
-1.01427e-36
2.07455e-36
7.52871e-38
-1.16545e-37
4.58631e-35
3.13079e-34
6.60329e-36
2.26542e-35
1.01426e-36
1.2501e-36
5.2217e-38
1.16544e-37
5.0687e-35
3.89351e-35
7.40689e-36
3.91302e-36
1.14312e-36
3.0628e-37
2.47028e-38
1.32205e-37
5.49128e-36
7.06612e-36
9.18764e-37
1.04346e-36
1.48489e-37
1.11048e-37
1.24211e-38
1.81343e-38
6.06077e-37
1.05251e-36
9.74112e-38
4.76953e-37
1.30715e-38
6.61368e-38
9.70906e-39
1.38458e-39
-2.31035e-36
3.7704e-37
-3.80258e-37
3.40169e-37
-7.71055e-38
4.87266e-38
7.44518e-39
-1.06173e-38
-5.37983e-36
-2.79233e-37
-3.72715e-36
-3.22474e-37
-7.14182e-37
-4.6529e-38
-7.11873e-39
-8.85643e-38
-2.37428e-36
-3.1621e-37
-3.92093e-37
-3.57862e-37
-7.92302e-38
-5.22845e-38
-7.48867e-39
-1.08602e-38
-1.24619e-37
-3.35749e-38
-3.02019e-38
-3.85643e-38
-8.80988e-39
-5.3735e-39
5.11028e-39
-8.80887e-40
-4.72319e-39
-4.26205e-39
-8.75718e-40
-3.71025e-39
4.37075e-39
1.06812e-38
6.56773e-38
8.78032e-39
1.47592e-39
6.79237e-40
9.24007e-39
8.60833e-39
5.4926e-38
7.71873e-38
4.72548e-37
1.29569e-37
1.66599e-38
7.45417e-39
1.03814e-37
6.54645e-38
6.81136e-37
5.92223e-37
3.79669e-36
2.15197e-36
1.07974e-37
7.59602e-37
5.7915e-36
2.76156e-35
1.47611e-40
-1.64073e-41
1.29584e-41
-2.25842e-43
1.0152e-42
-4.51855e-45
7.8956e-44
-8.01617e-46
5.6724e-45
-2.42781e-46
3.81185e-46
-1.07459e-46
1.83807e-47
3.20671e-47
6.97727e-48
4.74902e-47
4.09856e-48
8.33007e-48
7.27224e-49
1.58181e-48
1.30391e-49
1.9493e-49
1.42228e-50
2.42396e-50
-1.42021e-50
4.79907e-51
-1.30033e-49
2.42437e-50
-7.20942e-49
1.94991e-49
-3.99335e-48
1.58266e-48
-5.26358e-48
8.34145e-48
8.10699e-48
4.76342e-47
1.8439e-47
3.37725e-47
-4.12356e-48
-8.97215e-47
-2.51605e-47
-8.27918e-47
-4.12356e-48
8.27918e-47
1.8439e-47
8.97215e-47
8.10699e-48
-3.37725e-47
-5.2636e-48
-4.76342e-47
-3.99355e-48
-8.34143e-48
-7.22931e-49
-1.58242e-48
-1.46561e-49
-1.92553e-49
-1.48141e-49
2.13571e-52
-7.37096e-49
1.94735e-49
-4.1074e-48
1.60401e-48
-5.85218e-48
8.51214e-48
4.85273e-48
4.90193e-47
1.73154e-47
4.05049e-47
1.01001e-47
-5.0648e-47
-1.00982e-47
-9.84334e-47
-1.72984e-47
-5.06497e-47
-4.70409e-48
4.04846e-47
6.56557e-48
4.88013e-47
5.98692e-48
-5.69283e-42
-1.05781e-42
8.65599e-44
1.25851e-43
4.8909e-44
1.13918e-45
7.5097e-45
-8.50979e-46
7.85452e-46
-1.57939e-46
7.29737e-47
-2.1851e-47
5.60394e-48
8.42888e-49
7.87492e-49
3.11533e-48
2.72537e-49
5.62775e-49
4.59353e-50
1.08411e-49
8.11687e-51
1.34842e-50
8.87831e-52
1.68433e-51
-8.77641e-52
3.351e-52
-7.9636e-51
1.68669e-51
-4.35777e-50
1.35221e-50
-2.38366e-49
1.08987e-49
-3.11886e-49
5.71168e-49
4.90502e-49
3.22833e-48
1.10838e-48
2.28012e-48
-2.46341e-49
-6.07776e-48
-1.50841e-48
-5.60373e-48
-2.46341e-49
5.60373e-48
1.10838e-48
6.07776e-48
4.90502e-49
-2.28012e-48
-3.11887e-49
-3.22833e-48
-2.38378e-49
-5.71166e-49
-4.3702e-50
-1.0897e-49
-8.98737e-51
-1.33518e-50
-9.08593e-51
1.4937e-53
-4.45779e-50
1.35042e-50
-2.4534e-49
1.10472e-49
-3.47356e-49
5.82999e-49
2.96838e-49
3.32361e-48
1.04385e-48
2.74046e-48
6.07722e-49
-3.4358e-48
-6.07596e-49
-6.67461e-48
-1.04274e-48
-3.43594e-48
-2.87265e-49
2.73893e-48
3.92867e-49
3.30787e-48
4.09198e-49
-3.14366e-41
-4.43949e-42
1.32758e-42
-7.15333e-43
3.52695e-43
-5.02679e-44
5.09065e-44
-2.66847e-45
5.09038e-45
-9.44929e-47
4.73358e-46
-7.65359e-49
3.8248e-47
5.34907e-49
2.9847e-48
2.46203e-49
2.25823e-49
3.98348e-50
1.72066e-50
7.163e-51
1.43363e-51
8.78541e-52
1.13632e-52
1.0896e-52
-5.1277e-53
2.15866e-53
-4.94224e-52
1.07359e-52
-2.69289e-51
8.53964e-52
-1.46193e-50
6.81728e-51
-1.90494e-50
3.53422e-50
3.02019e-50
1.97512e-49
6.80388e-50
1.38957e-49
-1.51144e-50
-3.71693e-49
-9.25358e-50
-3.42421e-49
-1.51144e-50
3.42421e-49
6.80388e-50
3.71693e-49
3.02019e-50
-1.38957e-49
-1.90495e-50
-1.97512e-49
-1.46201e-50
-3.53421e-50
-2.70069e-51
-6.81621e-51
-5.58336e-52
-8.43045e-52
-5.64502e-52
9.62013e-55
-2.75534e-51
8.5281e-52
-1.5052e-50
6.91167e-51
-2.12389e-50
3.60885e-50
1.83457e-50
2.03464e-49
6.4167e-50
1.67365e-49
3.73326e-50
-2.10485e-49
-3.73242e-50
-4.08657e-49
-6.4095e-50
-2.10494e-49
-1.77294e-50
1.67261e-49
2.41855e-50
2.02439e-49
2.52012e-50
3.70906e-41
4.46583e-42
3.81062e-42
-1.27537e-44
3.35703e-43
6.60791e-45
2.94952e-44
1.57061e-45
2.34003e-45
2.18769e-46
1.82235e-46
2.12059e-47
1.31809e-47
1.86878e-48
9.31206e-49
1.54969e-49
6.28289e-50
1.25936e-50
4.17661e-51
1.12552e-51
2.77802e-52
9.88671e-53
1.8213e-53
9.51863e-54
-2.34323e-54
1.51659e-54
-2.87663e-53
6.74014e-54
-1.55947e-52
5.34205e-53
-8.39411e-52
4.24269e-52
-1.08952e-51
2.19149e-51
1.73651e-51
1.21529e-50
3.90244e-51
8.5244e-51
-8.68269e-52
-2.28614e-50
-5.30749e-51
-2.10475e-50
-8.68269e-52
2.10475e-50
3.90244e-51
2.28614e-50
1.7365e-51
-8.5244e-51
-1.08953e-51
-1.21529e-50
-8.39458e-52
-2.19148e-51
-1.56408e-52
-4.24202e-52
-3.25651e-53
-5.27333e-53
-3.29281e-53
6.05563e-56
-1.59612e-52
5.33473e-53
-8.64606e-52
4.30185e-52
-1.21613e-51
2.23816e-51
1.05716e-51
1.25231e-50
3.6849e-51
1.02843e-50
2.14302e-51
-1.29601e-50
-2.14251e-51
-2.51543e-50
-3.68053e-51
-1.29607e-50
-1.02036e-51
1.02774e-50
1.3916e-51
1.24572e-50
1.5607e-51
1.81147e-40
4.75579e-41
1.57612e-41
3.59849e-42
1.22214e-42
2.78708e-43
9.44473e-44
2.0001e-44
6.7398e-45
1.41911e-45
4.73209e-46
9.46366e-47
3.12932e-47
6.18371e-48
2.02465e-48
3.8521e-49
1.24927e-49
2.34829e-50
7.52787e-51
1.38662e-51
4.36705e-52
8.06328e-53
2.47429e-53
4.65497e-54
1.15417e-54
3.08353e-55
-1.58485e-54
4.08564e-55
-8.93726e-54
3.13566e-54
-4.78519e-53
2.474e-53
-6.19343e-53
1.27032e-52
9.90412e-53
6.98524e-52
2.22191e-52
4.88419e-52
-4.95106e-53
-1.31354e-51
-3.02217e-52
-1.2085e-51
-4.95106e-53
1.2085e-51
2.22191e-52
1.31354e-51
9.90412e-53
-4.88419e-52
-6.19346e-53
-6.98524e-52
-4.78547e-53
-1.27032e-52
-8.96746e-54
-2.4736e-53
-1.87248e-54
-3.09441e-54
-1.89343e-54
3.59365e-57
-9.15221e-54
3.13074e-54
-4.92993e-53
2.50884e-53
-6.91883e-53
1.2977e-52
6.03679e-53
7.20085e-52
2.09982e-52
5.90278e-52
1.22091e-52
-7.45578e-52
-1.2206e-52
-1.44652e-51
-2.09723e-52
-7.45616e-52
-5.82084e-53
5.89857e-52
7.95285e-53
7.16134e-52
9.02475e-53
-2.82337e-41
8.68546e-41
-2.5055e-42
6.50532e-42
-1.98521e-43
4.97338e-43
-1.54723e-44
3.52402e-44
-1.11468e-45
2.46699e-45
-7.83925e-47
1.62426e-46
-5.19528e-48
1.04731e-47
-3.3515e-49
6.43081e-49
-2.06141e-50
3.85622e-50
-1.23331e-51
2.22121e-51
-7.08625e-53
1.24882e-52
-3.96124e-54
6.78868e-54
-2.24926e-55
3.6285e-55
-1.01858e-55
4.126e-56
-4.87758e-55
1.81389e-55
-2.59106e-54
1.41862e-54
-3.34347e-54
7.26731e-54
5.3648e-54
3.97168e-53
1.2014e-53
2.77017e-53
-2.68171e-54
-7.46606e-53
-1.63433e-53
-6.86541e-53
-2.68171e-54
6.86541e-53
1.2014e-53
7.46606e-53
5.3648e-54
-2.77017e-53
-3.34348e-54
-3.97168e-53
-2.59118e-54
-7.26728e-54
-4.88639e-55
-1.41834e-54
-1.02426e-55
-1.78118e-55
-1.03578e-55
2.07703e-58
-4.98781e-55
1.80217e-55
-2.67011e-54
1.43865e-54
-3.73841e-54
7.42485e-54
3.27401e-54
4.09524e-53
1.1364e-53
3.35254e-53
6.60588e-54
-4.24144e-53
-6.60411e-54
-8.22706e-53
-1.13494e-53
-4.24167e-53
-3.15401e-54
3.35002e-53
4.31342e-54
4.07204e-53
5.15903e-54
-3.63328e-40
4.09104e-41
-3.15512e-41
1.93981e-42
-2.4455e-42
1.17463e-43
-1.8825e-43
7.63237e-45
-1.33934e-44
5.18252e-46
-9.35496e-46
3.36888e-47
-6.15779e-47
2.15846e-48
-3.95981e-48
1.31851e-49
-2.42847e-49
7.87499e-51
-1.45241e-50
4.51696e-52
-8.34912e-52
2.52981e-53
-4.6792e-53
1.36879e-54
-2.53477e-54
7.24551e-56
-1.3872e-55
4.95365e-57
-3.29149e-56
1.0084e-56
-1.38291e-55
7.7475e-56
-1.77607e-55
3.95594e-55
2.85683e-55
2.14787e-54
6.38865e-55
1.4942e-54
-1.42803e-55
-4.03628e-54
-8.69181e-55
-3.7095e-54
-1.42803e-55
3.7095e-54
6.38865e-55
4.03628e-54
2.85684e-55
-1.4942e-54
-1.77591e-55
-2.14787e-54
-1.37955e-55
-3.95592e-55
-2.61329e-56
-7.74532e-56
-5.4867e-57
-9.76964e-57
-5.54861e-57
1.1462e-59
-2.66774e-56
9.88536e-57
-1.4218e-55
7.85692e-56
-1.98704e-55
4.04232e-55
1.74493e-55
2.2153e-54
6.0471e-55
1.81095e-54
3.5146e-55
-2.29515e-54
-3.51362e-55
-4.45067e-54
-6.03914e-55
-2.29529e-54
-1.67973e-55
1.80952e-54
2.30076e-55
2.20236e-54
2.80505e-55
-6.17739e-40
-6.00806e-41
-5.34839e-41
-7.52598e-42
-4.13058e-42
-6.56732e-43
-3.17252e-43
-4.82235e-44
-2.25134e-44
-3.40825e-45
-1.56975e-45
-2.24817e-46
-1.03127e-46
-1.44893e-47
-6.62228e-48
-8.88746e-49
-4.05518e-49
-5.32165e-50
-2.42247e-50
-3.05983e-51
-1.39087e-51
-1.71641e-52
-7.78743e-53
-9.29886e-54
-4.21339e-54
-4.9157e-55
-2.22637e-55
-2.5134e-56
-1.27251e-56
-7.30912e-58
-7.62039e-57
4.07831e-57
-9.08282e-57
2.11133e-56
1.46047e-56
1.1408e-55
3.26149e-56
7.9193e-56
-7.30099e-57
-2.14315e-55
-4.43783e-56
-1.96874e-55
-7.30099e-57
1.96874e-55
3.2615e-56
2.14315e-55
1.4606e-56
-7.9193e-56
-9.05517e-57
-1.1408e-55
-7.05159e-57
-2.11161e-56
-1.34221e-57
-4.13905e-57
-2.82362e-58
-5.23604e-58
-2.85558e-58
6.12996e-61
-1.3703e-57
5.29821e-58
-7.26884e-57
4.19888e-57
-1.01391e-56
2.15791e-56
8.92919e-57
1.17681e-55
3.08935e-56
9.60959e-56
1.79522e-56
-1.21949e-55
-1.7947e-56
-2.36438e-55
-3.08516e-56
-1.21956e-55
-8.58979e-57
9.60172e-56
1.17768e-56
1.16977e-55
1.49693e-56
-1.87558e-41
-6.35525e-41
-1.62168e-42
-7.84513e-42
-1.25039e-43
-6.82724e-43
-9.59367e-45
-5.00986e-44
-6.7999e-46
-3.54016e-45
-4.73729e-47
-2.33511e-46
-3.10939e-48
-1.50497e-47
-1.99533e-49
-9.23132e-49
-1.22097e-50
-5.52764e-50
-7.28962e-52
-3.17831e-51
-4.18288e-53
-1.78289e-52
-2.34085e-54
-9.65918e-54
-1.2659e-55
-5.10633e-55
-6.69132e-57
-2.61748e-56
-4.09088e-58
-1.28303e-57
-3.70196e-58
1.48898e-58
-4.53393e-58
1.08036e-57
7.31516e-58
5.82268e-57
1.63159e-57
4.03331e-57
-3.65676e-58
-1.09357e-56
-2.22026e-57
-1.00411e-56
-3.65675e-58
1.00411e-56
1.63159e-57
1.09358e-56
7.31555e-58
-4.03327e-57
-4.52564e-58
-5.82282e-57
-3.53135e-58
-1.08342e-57
-6.74585e-59
-2.12669e-58
-1.42008e-59
-2.69336e-59
-1.43616e-59
-2.43443e-62
-6.88735e-59
2.72987e-59
-3.64056e-58
2.15751e-58
-5.07037e-58
1.10728e-57
4.47518e-58
6.00782e-57
1.54635e-57
4.90022e-57
8.98464e-58
-6.22713e-57
-8.98196e-58
-1.2071e-56
-1.54421e-57
-6.22742e-57
-4.30269e-58
4.89603e-57
5.90638e-58
5.97104e-57
7.6774e-58
6.15581e-40
3.51988e-41
5.32962e-41
1.43705e-42
4.11596e-42
7.68862e-44
3.16125e-43
4.69901e-45
2.24329e-44
3.11155e-46
1.56412e-45
1.99746e-47
1.02756e-46
1.27074e-48
6.59835e-48
7.71346e-50
4.04048e-49
4.5841e-51
2.41366e-50
2.61581e-52
1.38579e-51
1.45845e-53
7.75893e-53
7.8527e-55
4.19789e-54
4.13008e-56
2.21568e-55
2.10662e-57
1.13417e-56
1.06337e-58
5.5001e-58
1.5677e-59
5.72086e-60
5.41344e-59
3.67318e-59
2.90865e-58
7.89547e-59
2.01938e-58
-1.77031e-59
-5.45843e-58
-1.07367e-58
-5.0141e-58
-1.77001e-59
5.01544e-58
7.88923e-59
5.4768e-58
3.54136e-59
-2.00733e-58
-2.18638e-59
-2.90752e-58
-1.70918e-59
-5.45439e-59
-3.27728e-60
-1.07294e-59
-6.96095e-61
-1.91726e-61
-6.98706e-61
-1.22292e-60
-3.34322e-60
1.16454e-60
-1.7623e-59
1.0802e-59
-2.45061e-59
5.5668e-59
2.16792e-59
3.00845e-58
7.48123e-59
2.45212e-58
4.3467e-59
-3.11885e-58
-4.34466e-59
-6.03464e-58
-7.47144e-59
-3.0982e-58
-2.08391e-59
2.44073e-58
2.86276e-59
2.98253e-58
3.7741e-59
3.8647e-40
7.20781e-41
3.35707e-41
5.36134e-42
2.60263e-42
4.08385e-43
2.00387e-43
2.88725e-44
1.42592e-44
2.01741e-45
9.96124e-46
1.32598e-46
6.5577e-47
8.53498e-48
4.21746e-48
5.23156e-49
2.58674e-49
3.13125e-50
1.5472e-50
1.79972e-51
8.89477e-52
1.00926e-52
4.98539e-53
5.46633e-54
2.70019e-54
2.88913e-55
1.42647e-55
1.48082e-56
7.31034e-57
7.40784e-58
3.64883e-58
3.46198e-59
1.68184e-59
-6.31997e-60
2.61538e-60
1.02786e-59
3.77939e-60
2.58046e-59
-8.90584e-61
-1.35468e-59
-5.05017e-60
-2.17586e-59
-7.60757e-61
2.43691e-59
3.70595e-60
5.27882e-59
1.59799e-60
6.82752e-61
-1.0796e-60
-8.00827e-60
-7.59921e-61
-6.50464e-60
-1.48572e-61
-1.96633e-60
-1.57609e-61
2.45899e-59
-4.21114e-62
-2.59567e-59
-8.60753e-62
-4.34163e-60
-7.93772e-61
-5.33032e-62
-1.11434e-60
4.79913e-60
9.94886e-61
2.64272e-59
3.46569e-60
2.27427e-59
2.13267e-60
-2.77459e-59
-1.9743e-60
-3.07281e-59
-3.63751e-60
1.71508e-59
-1.08982e-60
1.90255e-60
1.42348e-60
1.04593e-59
-1.47107e-59
5.78483e-41
3.24131e-41
5.12485e-42
2.48611e-42
4.05758e-43
1.91807e-43
3.16683e-44
1.36578e-44
2.28581e-45
9.58e-46
1.61273e-46
6.31895e-47
1.07257e-47
4.07742e-48
6.94985e-49
2.50568e-49
4.29499e-50
1.50267e-50
2.5839e-51
8.65414e-52
1.49408e-52
4.86095e-53
8.4125e-54
2.63705e-54
4.57695e-55
1.39564e-55
2.4268e-56
7.16184e-57
1.24756e-57
3.50243e-58
6.20069e-59
-2.53269e-59
4.19927e-60
-2.31306e-58
2.30308e-60
-8.36015e-59
3.3017e-61
3.50567e-58
-1.28131e-60
2.78171e-58
3.85334e-61
5.11166e-59
1.66486e-60
-2.24739e-60
-3.80083e-61
5.41877e-58
-1.65727e-60
2.19129e-58
-1.09111e-60
1.29734e-58
1.03138e-60
-8.55789e-59
1.70328e-61
-3.66815e-59
-2.70309e-60
5.0971e-58
-1.9134e-61
-5.37912e-58
1.58507e-60
-9.07339e-59
8.84186e-61
-1.14555e-59
9.7006e-61
4.57802e-59
-7.02653e-61
2.59505e-58
-1.59475e-60
2.3727e-58
1.72546e-60
-2.78546e-58
1.7196e-60
-4.15947e-59
-2.37213e-60
6.67155e-58
-2.23842e-60
-2.20567e-58
1.51723e-60
-8.24143e-59
-3.35623e-58
9.2906e-42
5.02677e-42
8.41277e-43
3.95767e-43
6.77953e-44
3.10147e-44
5.35922e-45
2.24325e-45
3.90908e-46
1.59004e-46
2.77952e-47
1.06021e-47
1.86039e-48
6.89436e-49
1.21117e-49
4.27052e-50
7.51353e-51
2.57626e-51
4.53246e-52
1.49261e-52
2.62623e-53
8.42256e-54
1.48066e-54
4.59013e-55
8.06257e-56
2.43773e-56
4.27382e-57
1.23221e-57
2.06962e-58
-1.19305e-58
-1.90089e-60
-8.9922e-58
2.69642e-59
-4.91045e-57
4.624e-59
-1.78504e-57
3.30299e-60
7.40171e-57
-2.8002e-59
5.90016e-57
1.18098e-59
1.0745e-57
3.62293e-59
-2.0806e-58
-1.06314e-59
1.07206e-56
-3.66595e-59
4.50641e-57
-2.31215e-59
2.72647e-57
2.22654e-59
-1.83546e-57
4.27547e-60
-8.83037e-58
-5.67898e-59
1.02062e-56
-3.90474e-60
-1.08003e-56
3.38157e-59
-1.80993e-57
2.01686e-59
-2.19003e-58
2.26328e-59
9.64031e-58
-1.67668e-59
5.46711e-57
-3.94002e-59
4.98928e-57
3.43738e-59
-5.9089e-57
3.87623e-59
-9.84097e-58
-4.72356e-59
1.34221e-56
-4.53567e-59
-4.79209e-57
3.1189e-59
-1.68995e-57
-6.56346e-57
9.75184e-43
1.09041e-42
8.96088e-44
9.14164e-44
7.30619e-45
7.36774e-45
5.82718e-46
5.56592e-46
4.28003e-47
4.03494e-47
3.06025e-48
2.77954e-48
2.05693e-49
1.84252e-49
1.34373e-50
1.17081e-50
8.35661e-52
7.18152e-52
5.05122e-53
4.2468e-53
2.93071e-54
2.4304e-54
1.65402e-55
1.34581e-55
9.0015e-57
7.1623e-57
4.24831e-58
-1.05763e-58
-2.57056e-58
-3.7352e-57
-2.80155e-58
-1.85644e-56
5.74217e-58
-1.01509e-55
1.00427e-57
-3.69659e-56
6.98612e-59
1.52992e-55
-6.16683e-58
1.21799e-55
2.16592e-58
2.15866e-56
7.53746e-58
-7.03298e-57
-1.97419e-58
2.07568e-55
-7.57694e-58
9.04331e-56
-5.0107e-58
5.57497e-56
4.53211e-58
-3.85242e-56
9.99659e-59
-2.04058e-56
-1.16676e-57
1.99738e-55
-7.83089e-59
-2.11963e-55
7.02276e-58
-3.52482e-56
4.31418e-58
-4.05436e-57
4.89634e-58
1.98814e-56
-3.66943e-58
1.12883e-55
-8.639e-58
1.0271e-55
7.08361e-58
-1.22881e-55
8.10544e-58
-2.30067e-56
-9.87614e-58
2.63683e-55
-9.15337e-58
-1.01406e-55
6.54218e-58
-3.35932e-56
-1.25131e-55
-2.01966e-43
2.89257e-42
-2.01387e-44
2.63874e-43
-2.00161e-45
2.17076e-44
-1.71246e-46
1.73303e-45
-1.43335e-47
1.28221e-46
-1.08946e-48
9.19013e-48
-8.04694e-50
6.21187e-49
-5.54634e-51
4.06918e-50
-3.70795e-52
2.54103e-51
-2.34954e-53
1.53888e-52
-1.44413e-54
8.93447e-54
-8.4945e-56
5.02633e-55
-5.06045e-57
2.59017e-56
-1.38774e-57
-8.16437e-57
-5.95887e-57
-7.47471e-56
-5.95001e-57
-3.70002e-55
1.21177e-56
-2.03214e-54
2.1202e-56
-7.41297e-55
1.43847e-57
3.06253e-54
-1.31915e-56
2.43507e-54
3.71573e-57
4.19562e-55
1.51962e-56
-1.95424e-55
-3.4476e-57
3.86972e-54
-1.51654e-56
1.756e-54
-1.05496e-56
1.10375e-54
8.91325e-57
-7.8295e-55
2.25843e-57
-4.51454e-55
-2.31957e-56
3.76891e-54
-1.51568e-57
-4.01257e-54
1.41312e-56
-6.62452e-55
8.96368e-57
-7.16288e-56
1.02945e-56
3.97233e-55
-7.79541e-57
2.2577e-54
-1.84008e-56
2.0502e-54
1.41284e-56
-2.47428e-54
1.64299e-56
-5.13818e-55
-2.00257e-56
4.99831e-54
-1.78282e-56
-2.07675e-54
1.33088e-56
-6.45995e-55
-2.28983e-54
-3.53439e-42
2.60661e-41
-3.38984e-43
2.33922e-42
-3.14197e-44
1.89426e-43
-2.6132e-45
1.49736e-44
-2.09974e-46
1.09672e-45
-1.56238e-47
7.80833e-47
-1.12361e-48
5.24183e-48