/*--------------------------------*- C++ -*----------------------------------*\
| =========                 |                                                 |
| \\      /  F ield         | OpenFOAM: The Open Source CFD Toolbox           |
|  \\    /   O peration     | Version:  2.4.0                                 |
|   \\  /    A nd           | Web:      www.OpenFOAM.org                      |
|    \\/     M anipulation  |                                                 |
\*---------------------------------------------------------------------------*/
FoamFile
{
    version     2.0;
    format      ascii;
    class       volVectorField;
    location    "0.55";
    object      U;
}
// * * * * * * * * * * * * * * * * * * * * * * * * * * * * * * * * * * * * * //

dimensions      [0 1 -1 0 0 0 0];

internalField   nonuniform List<vector> 
1915
(
(6.0776e-42 -2.06628e-39 0)
(1.59259e-40 -2.6623e-40 0)
(6.12257e-41 -2.00499e-38 0)
(1.7967e-39 -2.57694e-39 0)
(5.24083e-40 -1.80422e-37 0)
(1.69341e-38 -2.30994e-38 0)
(4.09452e-39 -1.56533e-36 0)
(1.50483e-37 -1.99077e-37 0)
(2.92844e-38 -1.25743e-35 0)
(1.28789e-36 -1.59518e-36 0)
(1.73998e-37 -9.85057e-35 0)
(1.01559e-35 -1.23791e-35 0)
(8.41923e-37 -6.83173e-34 0)
(7.7727e-35 -8.59955e-35 0)
(1.47976e-36 -4.8255e-33 0)
(5.16731e-34 -5.95699e-34 0)
(-1.12878e-35 -2.67103e-32 0)
(3.43171e-33 -3.34775e-33 0)
(-1.50775e-34 -1.78835e-31 0)
(1.59503e-32 -2.09976e-32 0)
(-4.54805e-36 -1.35588e-36 0)
(-4.97764e-35 -1.04711e-35 0)
(-2.7071e-34 -9.70962e-35 0)
(-3.39525e-33 -7.86807e-35 0)
(-3.1703e-33 1.87847e-34 0)
(3.1703e-33 1.87847e-34 0)
(3.39525e-33 -7.86807e-35 0)
(2.70711e-34 -9.70958e-35 0)
(4.98111e-35 -1.04742e-35 0)
(4.57342e-36 -1.44812e-36 0)
(5.61257e-37 -1.33146e-37 0)
(4.93366e-38 -1.36598e-38 0)
(-1.98789e-43 -2.26541e-39 0)
(-4.93392e-38 -1.36604e-38 0)
(-5.61291e-37 -1.33153e-37 0)
(-4.57382e-36 -1.44822e-36 0)
(-4.98161e-35 -1.04753e-35 0)
(-2.70761e-34 -9.71094e-35 0)
(-3.39582e-33 -7.8815e-35 0)
(-3.17492e-33 1.86385e-34 0)
(3.11992e-33 1.77238e-34 0)
(3.11992e-33 -1.77238e-34 0)
(-3.17492e-33 -1.86385e-34 0)
(-3.39582e-33 7.8815e-35 0)
(-2.70761e-34 9.71094e-35 0)
(-4.98161e-35 1.04753e-35 0)
(-4.57423e-36 1.44812e-36 0)
(-5.66272e-37 1.32006e-37 0)
(-9.98553e-38 -9.04588e-41 0)
(-5.70748e-37 -1.33047e-37 0)
(-4.61902e-36 -1.46054e-36 0)
(-5.03272e-35 -1.05948e-35 0)
(-2.74768e-34 -9.84233e-35 0)
(-3.44101e-33 -8.78274e-35 0)
(-3.39525e-33 9.98977e-35 0)
(-3.28502e-40 1.97115e-34 0)
(3.39525e-33 9.98968e-35 0)
(3.44097e-33 -8.78374e-35 0)
(2.74212e-34 -9.84433e-35 0)
(4.74952e-35 -9.68224e-36 0)
(-1.17529e-36 6.20747e-37 0)
(-1.15166e-35 5.46268e-36 0)
(-6.34579e-35 5.06613e-35 0)
(-5.3158e-34 4.10019e-35 0)
(-4.78574e-34 -9.79278e-35 0)
(4.78574e-34 -9.79278e-35 0)
(5.3158e-34 4.10019e-35 0)
(6.34584e-35 5.06613e-35 0)
(1.15279e-35 5.46665e-36 0)
(1.21284e-36 7.25952e-37 0)
(1.5026e-37 6.51007e-38 0)
(1.40592e-38 6.46354e-39 0)
(-6.22038e-44 1.04745e-39 0)
(-1.406e-38 6.46379e-39 0)
(-1.5027e-37 6.5104e-38 0)
(-1.21296e-36 7.25997e-37 0)
(-1.15294e-35 5.46717e-36 0)
(-6.34727e-35 5.06677e-35 0)
(-5.31732e-34 4.10675e-35 0)
(-4.79801e-34 -9.71954e-35 0)
(4.66894e-34 -9.23956e-35 0)
(4.66894e-34 9.23956e-35 0)
(-4.79801e-34 9.71954e-35 0)
(-5.31732e-34 -4.10675e-35 0)
(-6.34727e-35 -5.06677e-35 0)
(-1.15294e-35 -5.46717e-36 0)
(-1.21308e-36 -7.25952e-37 0)
(-1.51709e-37 -6.45739e-38 0)
(-2.84718e-38 4.095e-41 0)
(-1.52997e-37 6.50561e-38 0)
(-1.22583e-36 7.31844e-37 0)
(-1.16654e-35 5.5258e-36 0)
(-6.45338e-35 5.1328e-35 0)
(-5.42032e-34 4.58018e-35 0)
(-5.3158e-34 -5.20664e-35 0)
(-1.10638e-40 -1.02787e-34 0)
(5.31578e-34 -5.20661e-35 0)
(5.42019e-34 4.5805e-35 0)
(6.43694e-35 5.1299e-35 0)
(1.07318e-35 4.27915e-36 0)
(-2.78884e-37 1.64351e-37 0)
(-2.28986e-36 1.41169e-36 0)
(-8.90485e-36 1.07227e-35 0)
(-5.76372e-35 8.23396e-36 0)
(-5.07838e-35 -2.0584e-35 0)
(5.07838e-35 -2.0584e-35 0)
(5.76372e-35 8.23395e-36 0)
(8.90483e-36 1.07226e-35 0)
(2.29102e-36 1.41266e-36 0)
(2.7444e-37 1.93917e-37 0)
(3.83526e-38 1.87499e-38 0)
(3.82615e-39 1.89865e-39 0)
(-1.99216e-44 3.2024e-40 0)
(-3.8264e-39 1.89873e-39 0)
(-3.83559e-38 1.87509e-38 0)
(-2.74476e-37 1.93931e-37 0)
(-2.29143e-36 1.41282e-36 0)
(-8.90873e-36 1.07245e-35 0)
(-5.76759e-35 8.25286e-36 0)
(-5.10621e-35 -2.03881e-35 0)
(4.8454e-35 -1.91524e-35 0)
(4.8454e-35 1.91524e-35 0)
(-5.10621e-35 2.03881e-35 0)
(-5.76759e-35 -8.25286e-36 0)
(-8.90873e-36 -1.07245e-35 0)
(-2.29143e-36 -1.41282e-36 0)
(-2.74513e-37 -1.93917e-37 0)
(-3.87706e-38 -1.85888e-38 0)
(-7.75775e-39 1.26854e-41 0)
(-3.91399e-38 1.8736e-38 0)
(-2.77963e-37 1.95641e-37 0)
(-2.32589e-36 1.42967e-36 0)
(-9.1444e-36 1.08995e-35 0)
(-5.96886e-35 9.46971e-36 0)
(-5.76372e-35 -1.10971e-35 0)
(-1.66704e-41 -2.18369e-35 0)
(5.7637e-35 -1.1097e-35 0)
(5.96873e-35 9.47079e-36 0)
(9.12818e-36 1.08929e-35 0)
(2.23422e-36 1.10583e-36 0)
(-4.52265e-38 4.30585e-38 0)
(-3.22727e-37 3.39753e-37 0)
(-9.17577e-37 2.4192e-36 0)
(-4.7504e-36 1.82685e-36 0)
(-4.11818e-36 -4.64307e-36 0)
(4.11818e-36 -4.64307e-36 0)
(4.7504e-36 1.82685e-36 0)
(9.17557e-37 2.4192e-36 0)
(3.2275e-37 3.4013e-37 0)
(4.33286e-38 5.10551e-38 0)
(6.53988e-39 5.22572e-39 0)
(6.88003e-40 5.59064e-40 0)
(-4.02932e-45 9.78388e-41 0)
(-6.88054e-40 5.5909e-40 0)
(-6.54051e-39 5.22606e-39 0)
(-4.33356e-38 5.10595e-38 0)
(-3.22827e-37 3.4018e-37 0)
(-9.18259e-37 2.41976e-36 0)
(-4.75702e-36 1.83213e-36 0)
(-4.16221e-36 -4.59146e-36 0)
(3.78881e-36 -4.29767e-36 0)
(3.78881e-36 4.29767e-36 0)
(-4.16221e-36 4.59146e-36 0)
(-4.75702e-36 -1.83213e-36 0)
(-9.18259e-37 -2.41976e-36 0)
(-3.22827e-37 -3.40179e-37 0)
(-4.33426e-38 -5.10551e-38 0)
(-6.61781e-39 -5.17648e-39 0)
(-1.39624e-39 3.99356e-42 0)
(-6.68636e-39 5.22135e-39 0)
(-4.39608e-38 5.15606e-38 0)
(-3.28666e-37 3.44846e-37 0)
(-9.5497e-37 2.46554e-36 0)
(-5.03574e-36 2.12065e-36 0)
(-4.7504e-36 -2.51767e-36 0)
(-1.61668e-42 -4.94162e-36 0)
(4.75039e-36 -2.51765e-36 0)
(5.03572e-36 2.12075e-36 0)
(9.54658e-37 2.46273e-36 0)
(3.25529e-37 2.62818e-37 0)
(-7.04756e-39 7.40196e-39 0)
(-4.43844e-38 5.58512e-38 0)
(-8.19263e-38 3.71777e-37 0)
(-2.82985e-37 2.75041e-37 0)
(-2.39866e-37 -7.12663e-37 0)
(2.39866e-37 -7.12663e-37 0)
(2.82984e-37 2.75041e-37 0)
(8.19198e-38 3.71779e-37 0)
(4.4354e-38 5.59308e-38 0)
(6.50661e-39 8.84735e-39 0)
(1.05867e-39 9.49737e-40 0)
(1.15951e-40 1.05017e-40 0)
(-7.51341e-46 1.8932e-41 0)
(-1.15961e-40 1.05023e-40 0)
(-1.05879e-39 9.49807e-40 0)
(-6.50786e-39 8.84821e-39 0)
(-4.43674e-38 5.59403e-38 0)
(-8.20382e-38 3.71884e-37 0)
(-2.84056e-37 2.76e-37 0)
(-2.46491e-37 -7.0371e-37 0)
(1.94439e-37 -6.55773e-37 0)
(1.94439e-37 6.55773e-37 0)
(-2.46491e-37 7.0371e-37 0)
(-2.84056e-37 -2.76e-37 0)
(-8.20382e-38 -3.71884e-37 0)
(-4.43675e-38 -5.59402e-38 0)
(-6.50911e-39 -8.84734e-39 0)
(-1.07227e-39 -9.40208e-40 0)
(-2.35511e-40 7.87239e-43 0)
(-1.08418e-39 9.48875e-40 0)
(-6.61291e-39 8.94197e-39 0)
(-4.53079e-38 5.67849e-38 0)
(-8.74727e-38 3.79772e-37 0)
(-3.21785e-37 3.22979e-37 0)
(-2.82984e-37 -3.88821e-37 0)
(3.67208e-44 -7.61463e-37 0)
(2.82986e-37 -3.88819e-37 0)
(3.21821e-37 3.22977e-37 0)
(8.78249e-38 3.79161e-37 0)
(4.6784e-38 4.26656e-38 0)
(-9.55458e-40 1.21048e-39 0)
(-5.48069e-39 8.70969e-39 0)
(-6.761e-39 5.59421e-38 0)
(-9.31873e-39 4.09585e-38 0)
(-7.30408e-39 -1.07264e-37 0)
(7.30408e-39 -1.07264e-37 0)
(9.31867e-39 4.09585e-38 0)
(6.75985e-39 5.59429e-38 0)
(5.47301e-39 8.72732e-39 0)
(8.59992e-40 1.4531e-39 0)
(1.47295e-40 1.61523e-40 0)
(1.66738e-41 1.84288e-41 0)
(-1.17275e-46 3.39854e-42 0)
(-1.66753e-41 1.84298e-41 0)
(-1.47313e-40 1.61536e-40 0)
(-8.60179e-40 1.45325e-39 0)
(-5.47498e-39 8.72903e-39 0)
(-6.77689e-39 5.59614e-38 0)
(-9.46795e-39 4.11218e-38 0)
(-8.18112e-39 -1.05792e-37 0)
(1.68178e-39 -9.8373e-38 0)
(1.68178e-39 9.8373e-38 0)
(-8.18112e-39 1.05792e-37 0)
(-9.46795e-39 -4.11218e-38 0)
(-6.77689e-39 -5.59614e-38 0)
(-5.475e-39 -8.72902e-39 0)
(-8.60367e-40 -1.4531e-39 0)
(-1.49301e-40 -1.59812e-40 0)
(-3.38901e-41 1.43761e-43 0)
(-1.51052e-40 1.61365e-40 0)
(-8.75253e-40 1.46966e-39 0)
(-5.60526e-39 8.8721e-39 0)
(-7.4876e-39 5.72512e-38 0)
(-1.40639e-38 4.83776e-38 0)
(-9.31867e-39 -5.87396e-38 0)
(3.94373e-44 -1.14829e-37 0)
(9.31927e-39 -5.87397e-38 0)
(1.40726e-38 4.8373e-38 0)
(7.57222e-39 5.71263e-38 0)
(5.9719e-39 6.56325e-39 0)
(-1.09792e-40 1.76699e-40 0)
(-6.69065e-40 1.16068e-39 0)
(-5.79583e-40 7.29834e-39 0)
(6.14883e-40 5.28439e-39 0)
(6.20379e-40 -1.39961e-38 0)
(-6.20357e-40 -1.39961e-38 0)
(-6.14733e-40 5.28467e-39 0)
(5.80672e-40 7.3007e-39 0)
(6.67136e-40 1.18046e-39 0)
(1.09563e-40 2.03892e-40 0)
(1.95117e-41 2.33546e-41 0)
(2.26202e-42 2.7275e-42 0)
(-1.69788e-47 5.12977e-43 0)
(-2.26223e-42 2.72766e-42 0)
(-1.95142e-41 2.33566e-41 0)
(-1.09589e-40 2.03916e-40 0)
(-6.67409e-40 1.18072e-39 0)
(-5.82986e-40 7.30343e-39 0)
(5.94946e-40 5.30828e-39 0)
(5.08482e-40 -1.37894e-38 0)
(-1.30728e-39 -1.2792e-38 0)
(-1.30728e-39 1.2792e-38 0)
(5.08482e-40 1.37894e-38 0)
(5.94946e-40 -5.30828e-39 0)
(-5.82986e-40 -7.30343e-39 0)
(-6.67412e-40 -1.18072e-39 0)
(-1.09616e-40 -2.03892e-40 0)
(-1.97895e-41 -2.30963e-41 0)
(-4.60026e-42 2.19898e-44 0)
(-2.00314e-41 2.33305e-41 0)
(-1.11631e-40 2.06337e-40 0)
(-6.84611e-40 1.20135e-39 0)
(-6.72762e-40 7.48371e-39 0)
(3.96874e-41 6.28213e-39 0)
(6.14734e-40 -7.69282e-39 0)
(9.84388e-45 -1.50146e-38 0)
(-6.14602e-40 -7.69288e-39 0)
(-3.81057e-41 6.28102e-39 0)
(6.87636e-40 7.46349e-39 0)
(7.49144e-40 8.77722e-40 0)
(2.98793e-40 3.10766e-40 0)
(-4.85655e-41 -2.19179e-41 0)
(-3.80776e-41 8.99906e-40 0)
(1.64519e-40 6.59673e-40 0)
(1.50254e-40 -1.76697e-39 0)
(-1.5004e-40 -1.76678e-39 0)
(-1.62817e-40 6.62039e-40 0)
(5.26946e-41 9.214e-40 0)
(7.62835e-41 1.52568e-40 0)
(1.29441e-41 2.71627e-41 0)
(2.36843e-42 3.18123e-42 0)
(2.80053e-43 3.78728e-43 0)
(-2.21846e-48 7.23068e-44 0)
(-2.8008e-43 3.78751e-43 0)
(-2.36875e-42 3.18152e-42 0)
(-1.29475e-41 2.71661e-41 0)
(-7.63179e-41 1.52604e-40 0)
(-5.29812e-41 9.21778e-40 0)
(1.60416e-40 6.65257e-40 0)
(1.36827e-40 -1.73922e-39 0)
(-2.28744e-40 -1.61098e-39 0)
(-2.28744e-40 1.61098e-39 0)
(1.36827e-40 1.73922e-39 0)
(1.60416e-40 -6.65257e-40 0)
(-5.29812e-41 -9.21778e-40 0)
(-7.63182e-41 -1.52604e-40 0)
(-1.29508e-41 -2.71627e-41 0)
(-2.40338e-42 -3.14482e-42 0)
(-5.69815e-43 3.13367e-45 0)
(-2.43375e-42 3.17779e-42 0)
(-1.31999e-41 2.75016e-41 0)
(-7.84002e-41 1.55406e-40 0)
(-6.35223e-41 9.45724e-40 0)
(9.73632e-41 7.90284e-40 0)
(1.62819e-40 -9.73611e-40 0)
(1.67446e-45 -1.89788e-39 0)
(-1.62798e-40 -9.73625e-40 0)
(-9.71324e-41 7.90076e-40 0)
(6.56273e-41 9.427e-40 0)
(8.74675e-41 1.1229e-40 0)
(7.54425e-39 -9.73807e-40 0)
(5.19663e-40 -1.42716e-39 0)
(1.62609e-40 -6.07459e-41 0)
(3.97578e-41 6.07856e-41 0)
(2.22857e-41 -2.06928e-40 0)
(-2.03794e-41 -2.05791e-40 0)
(-2.2624e-41 7.64943e-41 0)
(5.13731e-42 1.07277e-40 0)
(8.47164e-42 1.81672e-41 0)
(1.46898e-42 3.30872e-42 0)
(2.74266e-43 3.94978e-43 0)
(3.29172e-44 4.77336e-44 0)
(-2.71353e-49 9.23276e-45 0)
(-3.29205e-44 4.77366e-44 0)
(-2.74304e-43 3.95016e-43 0)
(-1.46938e-42 3.30917e-42 0)
(-8.47567e-42 1.81719e-41 0)
(-5.1702e-42 1.07325e-40 0)
(2.23571e-41 7.69001e-41 0)
(1.9022e-41 -2.02345e-40 0)
(-2.92747e-41 -1.87134e-40 0)
(-2.92747e-41 1.87134e-40 0)
(1.9022e-41 2.02345e-40 0)
(2.23571e-41 -7.69001e-41 0)
(-5.1702e-42 -1.07325e-40 0)
(-8.47571e-42 -1.81719e-41 0)
(-1.46978e-42 -3.30872e-42 0)
(-2.78426e-43 -3.90328e-43 0)
(-6.70015e-44 4.03691e-46 0)
(-2.82035e-43 3.94534e-43 0)
(-1.49901e-42 3.35136e-42 0)
(-8.7163e-42 1.85191e-41 0)
(-6.36079e-42 1.10234e-40 0)
(1.53882e-41 9.17109e-41 0)
(2.26355e-41 -1.13634e-40 0)
(2.45146e-46 -2.21268e-40 0)
(-2.26326e-41 -1.13637e-40 0)
(-1.53578e-41 9.16794e-41 0)
(6.63143e-42 1.09833e-40 0)
(9.87662e-42 1.32653e-41 0)
(1.49524e-37 4.67231e-38 0)
(1.46336e-38 -1.19853e-38 0)
(1.67816e-39 -1.36268e-39 0)
(1.45735e-40 -1.00049e-40 0)
(1.43955e-41 -3.09164e-41 0)
(-1.40007e-42 -2.3531e-41 0)
(-2.50234e-42 8.46972e-42 0)
(5.10108e-43 1.19921e-41 0)
(8.90072e-43 2.06532e-42 0)
(1.57097e-43 3.82663e-43 0)
(2.97731e-44 4.63385e-44 0)
(3.61961e-45 5.66368e-45 0)
(-2.72684e-50 1.10625e-45 0)
(-3.61992e-45 5.66408e-45 0)
(-2.97763e-44 4.63435e-44 0)
(-1.57123e-43 3.82724e-43 0)
(-8.90227e-43 2.06601e-42 0)
(-5.09254e-43 1.19999e-41 0)
(2.5387e-42 8.55138e-42 0)
(2.15447e-42 -2.26111e-41 0)
(-3.23526e-42 -2.08871e-41 0)
(-3.23526e-42 2.08871e-41 0)
(2.15447e-42 2.26111e-41 0)
(2.5387e-42 -8.55138e-42 0)
(-5.09255e-43 -1.19999e-41 0)
(-8.90231e-43 -2.066e-42 0)
(-1.57169e-43 -3.8267e-43 0)
(-3.02342e-44 -4.57817e-44 0)
(-7.36989e-45 4.86882e-47 0)
(-3.06345e-44 4.62853e-44 0)
(-1.60379e-43 3.87723e-43 0)
(-9.16298e-43 2.10667e-42 0)
(-6.36103e-43 1.23357e-41 0)
(1.80971e-42 1.02285e-41 0)
(2.56893e-42 -1.27292e-41 0)
(3.14662e-47 -2.47652e-41 0)
(-2.56856e-42 -1.27295e-41 0)
(-1.80609e-42 1.02242e-41 0)
(6.67534e-43 1.2286e-41 0)
(1.05032e-42 1.49889e-42 0)
(5.10635e-34 -6.89767e-31 0)
(1.18209e-31 -8.75385e-32 0)
(1.16214e-32 -9.3759e-30 0)
(-1.63308e-32 -8.239e-31 0)
(1.55554e-31 1.1731e-30 0)
(-1.01689e-31 1.07261e-31 0)
(1.16201e-32 1.06489e-29 0)
(1.25528e-32 9.44107e-31 0)
(5.62769e-34 8.18321e-31 0)
(1.32148e-31 1.05117e-31 0)
(2.33964e-35 4.60494e-31 0)
(-1.33555e-32 6.18485e-32 0)
(3.74509e-35 1.73924e-30 0)
(-2.49122e-31 2.25293e-31 0)
(6.57219e-35 1.89019e-29 0)
(-4.44861e-31 1.78494e-30 0)
(2.02845e-36 3.59063e-29 0)
(-1.37863e-32 3.28257e-30 0)
(-6.5545e-35 1.9976e-29 0)
(4.43606e-31 1.87943e-30 0)
(2.64664e-31 2.33137e-31 0)
(2.87902e-32 4.22822e-32 0)
(3.66328e-33 4.4205e-33 0)
(3.22715e-34 5.46761e-34 0)
(3.06829e-35 1.42502e-34 0)
(6.26637e-37 9.68864e-34 0)
(-2.00805e-35 1.12227e-32 0)
(-2.4881e-34 9.19339e-32 0)
(-2.07507e-33 1.01128e-30 0)
(-2.02719e-32 5.38123e-30 0)
(-1.8427e-32 6.51045e-29 0)
(1.84271e-32 6.51045e-29 0)
(2.02707e-32 5.38122e-30 0)
(2.00193e-33 1.01119e-30 0)
(-1.76532e-33 9.12948e-32 0)
(-4.03006e-32 5.01134e-33 0)
(-5.40025e-31 9.64065e-34 0)
(-4.03208e-32 6.30409e-33 0)
(-2.01413e-33 6.46403e-34 0)
(-7.31002e-35 8.90621e-35 0)
(-7.80869e-37 8.02892e-36 0)
(4.15404e-36 2.74193e-36 0)
(2.36129e-35 1.40145e-35 0)
(1.44004e-32 -7.34232e-33 0)
(2.33822e-33 -6.26321e-34 0)
(2.49798e-34 -5.75531e-35 0)
(2.89011e-35 -4.947e-36 0)
(-2.35179e-33 -5.51125e-32 0)
(-3.02632e-34 -2.90062e-33 0)
(-2.89985e-35 -1.15195e-34 0)
(-2.16981e-36 -3.00559e-36 0)
(-1.7541e-32 7.27793e-33 0)
(-2.07416e-33 3.81355e-34 0)
(-1.99792e-34 1.33552e-35 0)
(-1.32597e-35 9.87183e-38 0)
(1.58841e-33 6.36251e-32 0)
(3.39422e-34 3.36181e-33 0)
(4.32485e-35 1.33064e-34 0)
(6.31381e-36 3.31817e-36 0)
(1.76375e-32 8.89408e-33 0)
(2.85674e-33 5.8401e-34 0)
(3.13852e-34 3.5075e-35 0)
(3.63859e-35 2.12471e-36 0)
(-2.13434e-33 8.72844e-33 0)
(-3.74574e-34 9.02542e-34 0)
(-4.47258e-35 9.86155e-35 0)
(-5.40947e-36 9.36912e-36 0)
(-3.44428e-32 2.23759e-32 0)
(-5.6206e-33 1.77134e-33 0)
(-6.25793e-34 1.45946e-34 0)
(-7.26618e-35 1.17399e-35 0)
(-6.01474e-32 1.25511e-31 0)
(-9.74863e-33 6.92498e-33 0)
(-1.07486e-33 2.89216e-34 0)
(-1.24264e-34 8.11187e-36 0)
(-1.8472e-33 2.22704e-31 0)
(-2.98545e-34 1.17085e-32 0)
(-3.27811e-35 4.17527e-34 0)
(-3.78265e-36 4.29197e-36 0)
(5.99525e-32 1.31613e-31 0)
(9.71653e-33 7.22187e-33 0)
(1.07118e-33 2.96619e-34 0)
(1.23836e-34 7.79613e-36 0)
(3.65756e-32 2.28144e-32 0)
(5.97217e-33 1.77679e-33 0)
(6.65101e-34 1.43094e-34 0)
(7.72619e-35 1.1307e-35 0)
(4.56523e-33 5.99517e-33 0)
(7.86582e-34 6.22927e-34 0)
(9.2983e-35 6.81749e-35 0)
(1.11518e-35 6.48551e-36 0)
(6.00496e-34 7.10641e-34 0)
(1.11785e-34 8.17892e-35 0)
(1.3813e-35 9.59768e-36 0)
(1.73e-36 9.61756e-37 0)
(5.52848e-35 9.82245e-35 0)
(1.07911e-35 1.21587e-35 0)
(1.37868e-36 1.51676e-36 0)
(1.77479e-37 1.58748e-37 0)
(-2.63861e-36 2.61936e-35 0)
(-4.5852e-37 4.54848e-36 0)
(-1.78636e-37 5.97721e-37 0)
(-2.48944e-38 7.46692e-38 0)
(-1.02134e-34 1.71507e-34 0)
(-1.91816e-35 3.24446e-35 0)
(-3.86984e-36 4.17071e-36 0)
(-5.1342e-37 5.31777e-37 0)
(-1.05685e-33 1.87523e-33 0)
(-1.94442e-34 3.36004e-34 0)
(-3.74343e-35 4.11785e-35 0)
(-4.83237e-36 5.0812e-36 0)
(-1.20984e-32 1.49174e-32 0)
(-2.09528e-33 2.37907e-33 0)
(-3.85038e-34 2.7191e-34 0)
(-4.76588e-35 3.14432e-35 0)
(-9.14658e-32 1.45645e-31 0)
(-1.52886e-32 2.05606e-32 0)
(-2.59214e-33 2.11489e-33 0)
(-3.0635e-34 2.27999e-34 0)
(-8.60629e-31 7.43202e-31 0)
(-1.23888e-31 6.86625e-32 0)
(-1.99813e-32 4.85738e-33 0)
(-2.22327e-33 3.32402e-34 0)
(-7.80299e-31 6.40486e-30 0)
(-1.10518e-31 4.48558e-31 0)
(-1.77403e-32 2.36825e-32 0)
(-1.96022e-33 8.59445e-34 0)
(7.80299e-31 6.40486e-30 0)
(1.10518e-31 4.48559e-31 0)
(1.77402e-32 2.36826e-32 0)
(1.9602e-33 8.59476e-34 0)
(8.60627e-31 7.4321e-31 0)
(1.23887e-31 6.86719e-32 0)
(1.99802e-32 4.85912e-33 0)
(2.22306e-33 3.3272e-34 0)
(9.13937e-32 1.45738e-31 0)
(1.52656e-32 2.06684e-32 0)
(2.57992e-33 2.13373e-33 0)
(3.04238e-34 2.31284e-34 0)
(1.01101e-32 1.55925e-32 0)
(1.66201e-33 3.15531e-33 0)
(2.30041e-34 4.01673e-34 0)
(2.38519e-35 5.23084e-35 0)
(-3.8812e-32 8.43784e-33 0)
(-6.06293e-33 7.73427e-33 0)
(-1.32297e-33 1.10833e-33 0)
(-1.74678e-34 1.69364e-34 0)
(-5.35433e-31 1.70552e-34 0)
(-5.99847e-32 3.2321e-35 0)
(-1.24092e-32 4.17222e-36 0)
(-1.46264e-33 6.20487e-37 0)
(-3.98608e-32 -6.54588e-33 0)
(-6.25579e-33 -7.3949e-33 0)
(-1.35998e-33 -1.0665e-33 0)
(-1.78942e-34 -1.63152e-34 0)
(-1.98763e-33 -6.73682e-34 0)
(-4.32888e-34 -7.7563e-34 0)
(-1.53735e-34 -1.27235e-34 0)
(-1.73824e-35 -7.82595e-36 0)
(-7.1686e-35 -9.28855e-35 0)
(-2.00545e-35 -1.04852e-34 0)
(3.04503e-36 4.55012e-36 0)
(8.18497e-35 1.24501e-34 0)
(2.33204e-36 -4.4237e-36 0)
(2.63354e-35 2.01413e-35 0)
(1.53138e-34 2.39319e-34 0)
(9.13711e-34 1.37501e-33 0)
(3.49622e-35 1.99317e-35 0)
(2.88629e-34 1.764e-34 0)
(1.72779e-33 1.52299e-33 0)
(1.15022e-32 9.41399e-33 0)
(2.13093e-34 1.50258e-34 0)
(1.88413e-33 1.31826e-33 0)
(1.28699e-32 1.19984e-32 0)
(9.96206e-32 7.72704e-32 0)
(2.6337e-36 -3.54752e-37 0)
(2.33408e-37 -1.15594e-38 0)
(1.82882e-38 -4.83858e-40 0)
(1.43053e-39 -2.56734e-41 0)
(1.03063e-40 -3.61748e-42 0)
(7.11468e-42 -1.88077e-42 0)
(2.89232e-43 6.33146e-43 0)
(6.77831e-44 9.10591e-43 0)
(6.77393e-44 1.59459e-43 0)
(1.18688e-44 3.02541e-44 0)
(2.2564e-45 3.72612e-45 0)
(2.76236e-46 4.63217e-46 0)
(1.90852e-50 9.16819e-47 0)
(-2.75872e-46 4.63259e-46 0)
(-2.24982e-45 3.72668e-45 0)
(-1.17533e-44 3.02614e-44 0)
(-6.58111e-44 1.59549e-43 0)
(-3.64255e-44 9.11712e-43 0)
(1.93891e-43 6.4656e-43 0)
(1.64257e-43 -1.71731e-42 0)
(-2.44351e-43 -1.58476e-42 0)
(-2.44351e-43 1.58476e-42 0)
(1.64257e-43 1.71731e-42 0)
(1.93891e-43 -6.4656e-43 0)
(-3.64255e-44 -9.11712e-43 0)
(-6.58114e-44 -1.59549e-43 0)
(-1.17568e-44 -3.02569e-44 0)
(-2.28494e-45 -3.6801e-45 0)
(-5.61777e-46 4.07971e-48 0)
(-2.31562e-45 3.72179e-45 0)
(-1.20013e-44 3.06694e-44 0)
(-6.77784e-44 1.62811e-43 0)
(-4.58907e-44 9.38196e-43 0)
(1.40147e-43 7.75343e-43 0)
(1.96176e-43 -9.69338e-43 0)
(2.70539e-48 -1.88394e-42 0)
(-1.96145e-43 -9.6937e-43 0)
(-1.39849e-43 7.74957e-43 0)
(4.84796e-44 9.34041e-43 0)
(7.90461e-44 1.14525e-43 0)
(-1.11437e-37 1.92938e-38 0)
(8.63236e-40 6.94191e-39 0)
(8.18052e-40 3.91473e-40 0)
(1.31927e-40 9.28384e-42 0)
(1.39368e-41 -1.34635e-42 0)
(1.3193e-42 -3.16298e-43 0)
(9.80935e-44 2.24877e-44 0)
(1.0754e-44 6.03777e-44 0)
(4.5418e-45 1.08552e-44 0)
(7.51797e-46 2.08703e-45 0)
(1.40423e-46 2.59359e-46 0)
(1.72341e-47 3.23774e-47 0)
(1.05611e-50 6.4384e-48 0)
(-1.70573e-47 3.24206e-47 0)
(-1.37623e-46 2.60041e-46 0)
(-7.08803e-46 2.09712e-45 0)
(-3.92107e-45 1.09977e-44 0)
(-2.13682e-45 6.22021e-44 0)
(1.1664e-44 4.39423e-44 0)
(9.86446e-45 -1.17106e-43 0)
(-1.46492e-44 -1.07978e-43 0)
(-1.46492e-44 1.07978e-43 0)
(9.86446e-45 1.17106e-43 0)
(1.1664e-44 -4.39423e-44 0)
(-2.13682e-45 -6.22021e-44 0)
(-3.92109e-45 -1.09976e-44 0)
(-7.09024e-46 -2.0968e-45 0)
(-1.39817e-46 -2.56768e-46 0)
(-3.47477e-47 2.86897e-49 0)
(-1.41732e-46 2.59697e-46 0)
(-7.24122e-46 2.12566e-45 0)
(-4.04122e-45 1.12252e-44 0)
(-2.70561e-45 6.40357e-44 0)
(8.47122e-45 5.28075e-44 0)
(1.18038e-44 -6.61944e-44 0)
(1.85644e-49 -1.28598e-43 0)
(-1.18018e-44 -6.61969e-44 0)
(-8.45183e-45 5.27782e-44 0)
(2.87217e-45 6.37335e-44 0)
(4.75863e-45 7.88124e-45 0)
(-6.30439e-37 -4.09214e-38 0)
(1.98341e-38 -4.3688e-39 0)
(5.95212e-39 -3.68182e-40 0)
(8.98409e-40 -2.66827e-41 0)
(9.03673e-41 -1.88282e-42 0)
(8.5052e-42 -1.3046e-43 0)
(6.89011e-43 -5.25426e-45 0)
(5.38954e-44 3.31735e-45 0)
(4.07774e-45 6.51137e-46 0)
(3.08507e-46 1.2951e-46 0)
(2.57034e-47 1.63337e-47 0)
(2.14256e-48 2.05981e-48 0)
(6.45575e-50 4.12949e-49 0)
(-1.06053e-48 2.06495e-48 0)
(-8.53898e-48 1.64283e-47 0)
(-4.37661e-47 1.31188e-46 0)
(-2.4019e-46 6.80244e-46 0)
(-1.29814e-46 3.8033e-45 0)
(7.16437e-46 2.67624e-45 0)
(6.05106e-46 -7.15751e-45 0)
(-8.9868e-46 -6.59408e-45 0)
(-8.9868e-46 6.59408e-45 0)
(6.05106e-46 7.15751e-45 0)
(7.16437e-46 -2.67624e-45 0)
(-1.29815e-46 -3.8033e-45 0)
(-2.40191e-46 -6.80243e-46 0)
(-4.37801e-47 -1.31167e-46 0)
(-8.67654e-48 -1.62183e-47 0)
(-2.16824e-48 1.85003e-50 0)
(-8.79629e-48 1.64061e-47 0)
(-4.47217e-47 1.33003e-46 0)
(-2.47639e-46 6.94602e-46 0)
(-1.64892e-46 3.91784e-45 0)
(5.21228e-46 3.22304e-45 0)
(7.25114e-46 -4.05295e-45 0)
(1.2468e-50 -7.86896e-45 0)
(-7.24976e-46 -4.05312e-45 0)
(-5.19966e-46 3.22105e-45 0)
(1.756e-46 3.89817e-45 0)
(2.94164e-46 4.85092e-46 0)
(6.524e-37 -4.98469e-38 0)
(6.80254e-38 -1.02567e-38 0)
(5.98975e-39 -6.5958e-40 0)
(5.30746e-40 -2.7876e-41 0)
(4.21507e-41 -4.91547e-44 0)
(3.30055e-42 1.14812e-43 0)
(2.39075e-43 1.61908e-44 0)
(1.69429e-44 1.71643e-45 0)
(1.14429e-45 1.63311e-46 0)
(7.60659e-47 1.69423e-47 0)
(5.05807e-48 1.62861e-48 0)
(3.3778e-49 1.67947e-49 0)
(1.59781e-50 2.84027e-50 0)
(-6.14916e-50 1.30082e-49 0)
(-4.97247e-49 1.03161e-48 0)
(-2.53177e-48 8.19614e-48 0)
(-1.37724e-47 4.23501e-47 0)
(-7.38982e-48 2.34964e-46 0)
(4.11186e-47 1.64838e-46 0)
(3.468e-47 -4.42009e-46 0)
(-5.15447e-47 -4.06953e-46 0)
(-5.15447e-47 4.06953e-46 0)
(3.468e-47 4.42009e-46 0)
(4.11186e-47 -1.64838e-46 0)
(-7.38983e-48 -2.34964e-46 0)
(-1.37725e-47 -4.235e-47 0)
(-2.53259e-48 -8.19484e-48 0)
(-5.05389e-49 -1.01835e-48 0)
(-1.27137e-49 1.16866e-51 0)
(-5.12438e-49 1.03021e-48 0)
(-2.58777e-48 8.31036e-48 0)
(-1.42058e-47 4.32514e-47 0)
(-9.41547e-48 2.42114e-46 0)
(2.99492e-47 1.98851e-46 0)
(4.1624e-47 -2.50557e-46 0)
(7.79593e-52 -4.86318e-46 0)
(-4.16155e-47 -2.50569e-46 0)
(-2.98729e-47 1.98719e-46 0)
(1.00541e-47 2.40844e-46 0)
(1.69755e-47 3.01644e-47 0)
(3.23439e-36 1.41154e-37 0)
(2.84109e-37 9.99592e-39 0)
(2.20259e-38 7.94683e-40 0)
(1.7122e-39 5.99883e-41 0)
(1.22289e-40 4.52204e-42 0)
(8.62054e-42 3.18756e-43 0)
(5.70783e-43 2.20177e-44 0)
(3.70373e-44 1.45203e-45 0)
(2.28831e-45 9.41731e-47 0)
(1.3819e-46 6.0698e-48 0)
(8.0264e-48 3.92793e-49 0)
(4.55891e-49 2.66679e-50 0)
(2.46998e-50 2.60512e-51 0)
(-2.28194e-51 7.72458e-51 0)
(-2.85012e-50 6.06036e-50 0)
(-1.45091e-49 4.78326e-49 0)
(-7.84355e-49 2.45636e-48 0)
(-4.1862e-49 1.35114e-47 0)
(2.34234e-48 9.44868e-48 0)
(1.97337e-48 -2.5408e-47 0)
(-2.93504e-48 -2.3377e-47 0)
(-2.93504e-48 2.3377e-47 0)
(1.97337e-48 2.5408e-47 0)
(2.34234e-48 -9.44868e-48 0)
(-4.18621e-49 -1.35114e-47 0)
(-7.8436e-49 -2.45635e-48 0)
(-1.45142e-49 -4.78249e-49 0)
(-2.90367e-50 -5.9815e-50 0)
(-7.33316e-51 6.94504e-53 0)
(-2.94437e-50 6.05173e-50 0)
(-1.48323e-49 4.8506e-49 0)
(-8.09236e-49 2.50927e-48 0)
(-5.34636e-49 1.39283e-47 0)
(1.70718e-48 1.14183e-47 0)
(2.37137e-48 -1.44212e-47 0)
(4.72713e-53 -2.79795e-47 0)
(-2.37086e-48 -1.44219e-47 0)
(-1.70267e-48 1.14102e-47 0)
(5.72062e-49 1.3852e-47 0)
(9.72652e-49 1.74513e-48 0)
(-5.03304e-37 8.31199e-37 0)
(-4.50896e-38 6.35777e-38 0)
(-3.57565e-39 4.90369e-39 0)
(-2.80302e-40 3.48945e-40 0)
(-2.0223e-41 2.44926e-41 0)
(-1.42787e-42 1.61615e-42 0)
(-9.4778e-44 1.04412e-43 0)
(-6.132e-45 6.42386e-45 0)
(-3.77745e-46 3.85951e-46 0)
(-2.26516e-47 2.22806e-47 0)
(-1.30341e-48 1.2558e-48 0)
(-7.29784e-50 6.8506e-50 0)
(-3.96224e-51 3.69938e-51 0)
(-4.06587e-52 6.28794e-52 0)
(-1.57185e-51 3.50701e-51 0)
(-7.90206e-51 2.75008e-50 0)
(-4.24252e-50 1.40907e-49 0)
(-2.25164e-50 7.70342e-49 0)
(1.26719e-49 5.3737e-49 0)
(1.06633e-49 -1.44813e-48 0)
(-1.58721e-49 -1.33167e-48 0)
(-1.58721e-49 1.33167e-48 0)
(1.06633e-49 1.44813e-48 0)
(1.26719e-49 -5.3737e-49 0)
(-2.25164e-50 -7.70342e-49 0)
(-4.24254e-50 -1.40907e-49 0)
(-7.90416e-51 -2.74959e-50 0)
(-1.58687e-51 -3.45218e-51 0)
(-4.0258e-52 4.02425e-54 0)
(-1.60926e-51 3.49286e-51 0)
(-8.07876e-51 2.78894e-50 0)
(-4.37839e-50 1.43961e-49 0)
(-2.88287e-50 7.94296e-49 0)
(9.24211e-50 6.50294e-49 0)
(1.28306e-49 -8.22637e-49 0)
(2.71263e-54 -1.59568e-48 0)
(-1.28277e-49 -8.22682e-49 0)
(-9.21676e-50 6.49806e-49 0)
(3.0906e-50 7.89803e-49 0)
(5.28753e-50 1.00036e-49 0)
(-6.48832e-36 9.44602e-37 0)
(-5.68745e-37 6.94281e-38 0)
(-4.40865e-38 5.26473e-39 0)
(-3.41336e-39 3.71563e-40 0)
(-2.43098e-40 2.59467e-41 0)
(-1.70469e-41 1.70476e-42 0)
(-1.12359e-42 1.09718e-43 0)
(-7.24628e-44 6.72437e-45 0)
(-4.45017e-45 4.02478e-46 0)
(-2.66752e-46 2.31336e-47 0)
(-1.53547e-47 1.2975e-48 0)
(-8.62109e-49 7.02932e-50 0)
(-4.67499e-50 3.71933e-51 0)
(-2.48395e-51 2.14795e-52 0)
(-2.1047e-52 2.0161e-52 0)
(-4.2885e-52 1.50381e-51 0)
(-2.25722e-51 7.67755e-51 0)
(-1.1925e-51 4.16957e-50 0)
(6.74144e-51 2.90092e-50 0)
(5.66749e-51 -7.83556e-50 0)
(-8.44122e-51 -7.20135e-50 0)
(-8.44122e-51 7.20135e-50 0)
(5.66749e-51 7.83556e-50 0)
(6.74144e-51 -2.90092e-50 0)
(-1.19248e-51 -4.16957e-50 0)
(-2.25693e-51 -7.67751e-51 0)
(-4.22635e-52 -1.5031e-51 0)
(-8.49548e-53 -1.89567e-52 0)
(-2.16155e-53 2.22386e-55 0)
(-8.61572e-53 1.91812e-52 0)
(-4.32009e-52 1.52475e-51 0)
(-2.32962e-51 7.84516e-51 0)
(-1.5299e-51 4.30042e-50 0)
(4.91913e-51 3.51568e-50 0)
(6.82639e-51 -4.45539e-50 0)
(1.51005e-55 -8.63978e-50 0)
(-6.82479e-51 -4.45564e-50 0)
(-4.90526e-51 3.51291e-50 0)
(1.64265e-51 4.27534e-50 0)
(2.8262e-51 5.444e-51 0)
(-1.10342e-35 -1.0816e-37 0)
(-9.64362e-37 -2.97674e-38 0)
(-7.44764e-38 -2.86313e-39 0)
(-5.75343e-39 -2.15515e-40 0)
(-4.08678e-40 -1.53507e-41 0)
(-2.86079e-41 -1.01597e-42 0)
(-1.88188e-42 -6.55863e-44 0)
(-1.21195e-43 -4.02859e-45 0)
(-7.4316e-45 -2.41469e-46 0)
(-4.44946e-46 -1.38984e-47 0)
(-2.55805e-47 -7.80265e-49 0)
(-1.43485e-48 -4.23073e-50 0)
(-7.77289e-50 -2.23793e-51 0)
(-4.10944e-51 -1.13514e-52 0)
(-2.14929e-52 4.56426e-54 0)
(-3.22364e-53 8.02188e-53 0)
(-1.15777e-52 4.1063e-52 0)
(-6.06418e-53 2.21906e-51 0)
(3.44315e-52 1.54062e-51 0)
(2.89178e-52 -4.16887e-51 0)
(-4.30988e-52 -3.82971e-51 0)
(-4.30988e-52 3.82971e-51 0)
(2.89178e-52 4.16887e-51 0)
(3.44316e-52 -1.54062e-51 0)
(-6.06174e-53 -2.21906e-51 0)
(-1.15265e-52 -4.10642e-52 0)
(-2.1701e-53 -8.04857e-53 0)
(-4.3692e-54 -1.01802e-53 0)
(-1.11522e-54 1.19633e-56 0)
(-4.43128e-54 1.0301e-53 0)
(-2.21846e-53 8.1649e-53 0)
(-1.19001e-52 4.19645e-52 0)
(-7.79354e-53 2.2891e-51 0)
(2.51371e-52 1.86933e-51 0)
(3.48685e-52 -2.37208e-51 0)
(8.0449e-57 -4.5991e-51 0)
(-3.486e-52 -2.37223e-51 0)
(-2.50643e-52 1.8678e-51 0)
(8.38003e-53 2.27542e-51 0)
(1.44945e-52 2.91112e-52 0)
(-3.35058e-37 -1.12023e-36 0)
(-2.92439e-38 -1.24106e-37 0)
(-2.25468e-39 -1.05642e-38 0)
(-1.73997e-40 -7.70448e-40 0)
(-1.23443e-41 -5.43332e-41 0)
(-8.634e-43 -3.58057e-42 0)
(-5.67432e-44 -2.30658e-43 0)
(-3.65184e-45 -1.41424e-44 0)
(-2.23763e-46 -8.4658e-46 0)
(-1.33896e-47 -4.8662e-47 0)
(-7.69326e-49 -2.72905e-48 0)
(-4.31319e-50 -1.47814e-49 0)
(-2.33538e-51 -7.81256e-51 0)
(-1.23429e-52 -4.00368e-52 0)
(-6.53922e-54 -1.95082e-53 0)
(-1.40664e-54 3.16508e-54 0)
(-5.78382e-54 2.10445e-53 0)
(-3.0226e-54 1.13374e-52 0)
(1.72311e-53 7.85388e-53 0)
(1.44599e-53 -2.12931e-52 0)
(-2.15625e-53 -1.95516e-52 0)
(-2.15625e-53 1.95516e-52 0)
(1.44599e-53 2.12931e-52 0)
(1.72312e-53 -7.85389e-53 0)
(-3.02188e-54 -1.13376e-52 0)
(-5.76846e-54 -2.10909e-53 0)
(-1.09063e-54 -4.13997e-54 0)
(-2.19643e-55 -5.25257e-55 0)
(-5.61858e-56 5.69822e-58 0)
(-2.22765e-55 5.31546e-55 0)
(-1.11499e-54 4.20004e-54 0)
(-5.95621e-54 2.15554e-53 0)
(-3.89217e-54 1.16977e-52 0)
(1.25845e-53 9.54152e-53 0)
(1.74508e-53 -1.21246e-52 0)
(4.20031e-58 -2.35033e-52 0)
(-1.74464e-53 -1.21254e-52 0)
(-1.25473e-53 9.53345e-53 0)
(4.19001e-54 1.16262e-52 0)
(7.28219e-54 1.49462e-53 0)
(1.09957e-35 -1.79146e-37 0)
(9.6098e-37 -3.62927e-38 0)
(7.42129e-38 -3.39456e-39 0)
(5.733e-39 -2.53853e-40 0)
(4.07219e-40 -1.80479e-41 0)
(2.85054e-41 -1.19372e-42 0)
(1.8751e-42 -7.70443e-44 0)
(1.20758e-43 -4.73164e-45 0)
(7.40465e-45 -2.83583e-46 0)
(4.43328e-46 -1.63207e-47 0)
(2.54872e-47 -9.16196e-49 0)
(1.4296e-48 -4.96743e-50 0)
(7.74436e-50 -2.62768e-51 0)
(4.09377e-51 -1.34793e-52 0)
(2.09843e-52 -6.7242e-54 0)
(1.04507e-53 -1.20772e-55 0)
(2.32336e-55 1.04411e-54 0)
(-1.21217e-55 5.67475e-54 0)
(8.34672e-55 3.92502e-54 0)
(6.98895e-55 -1.0656e-53 0)
(-1.04275e-54 -9.78094e-54 0)
(-1.04268e-54 9.78107e-54 0)
(6.98885e-55 1.06576e-53 0)
(8.33471e-55 -3.92401e-54 0)
(-1.45619e-55 -5.67539e-54 0)
(-2.7905e-55 -1.06032e-54 0)
(-5.29306e-56 -2.08183e-55 0)
(-1.07252e-56 -2.54194e-56 0)
(-2.7953e-57 -1.06756e-57 0)
(-1.07759e-56 2.65939e-56 0)
(-5.41607e-56 2.11145e-55 0)
(-2.88137e-55 1.08366e-54 0)
(-1.87856e-55 5.85707e-54 0)
(6.08939e-55 4.77313e-54 0)
(8.44169e-55 -6.07174e-54 0)
(1.06995e-58 -1.17676e-53 0)
(-8.43988e-55 -6.07029e-54 0)
(-6.07219e-55 4.76819e-54 0)
(2.02452e-55 5.81998e-54 0)
(3.53592e-55 7.50728e-55 0)
(6.90142e-36 8.9881e-37 0)
(6.05138e-37 6.56741e-38 0)
(4.69185e-38 4.96655e-39 0)
(3.63338e-39 3.49927e-40 0)
(2.58811e-40 2.44097e-41 0)
(1.81516e-41 1.60212e-42 0)
(1.19655e-42 1.03025e-43 0)
(7.71772e-44 6.30871e-45 0)
(4.74016e-45 3.77308e-46 0)
(2.84161e-46 2.16689e-47 0)
(1.63581e-47 1.21439e-48 0)
(9.1852e-49 6.57297e-50 0)
(4.98115e-50 3.47211e-51 0)
(2.63548e-51 1.77864e-52 0)
(1.35221e-52 8.89832e-54 0)
(6.77053e-54 4.41298e-55 0)
(3.16737e-55 6.27021e-56 0)
(9.93267e-57 2.72178e-55 0)
(4.08669e-56 2.03746e-55 0)
(3.25416e-56 -5.04152e-55 0)
(-4.98398e-56 -4.70721e-55 0)