/*--------------------------------*- C++ -*----------------------------------*\
| =========                 |                                                 |
| \\      /  F ield         | OpenFOAM: The Open Source CFD Toolbox           |
|  \\    /   O peration     | Version:  2.4.0                                 |
|   \\  /    A nd           | Web:      www.OpenFOAM.org                      |
|    \\/     M anipulation  |                                                 |
\*---------------------------------------------------------------------------*/
FoamFile
{
    version     2.0;
    format      ascii;
    class       volVectorField;
    location    "1";
    object      U;
}
// * * * * * * * * * * * * * * * * * * * * * * * * * * * * * * * * * * * * * //

dimensions      [0 1 -1 0 0 0 0];

internalField   nonuniform List<vector> 
1935
(
(2.03686e-33 7.6945e-38 0)
(4.91886e-34 -2.32694e-34 0)
(1.10882e-34 -6.15064e-35 0)
(1.82672e-35 -3.6987e-35 0)
(-2.7278e-35 -1.90969e-34 0)
(-8.02706e-34 -1.53554e-33 0)
(-1.26737e-32 -1.03133e-32 0)
(-1.47281e-31 -7.28642e-32 0)
(-1.18671e-30 -3.23837e-31 0)
(-1.41667e-31 -2.31664e-30 0)
(2.15962e-32 -9.46285e-30 0)
(-7.44379e-33 -7.90906e-29 0)
(-7.13673e-32 1.76788e-30 0)
(-5.16352e-33 8.10963e-29 0)
(3.51951e-32 9.76217e-30 0)
(5.76345e-33 2.44867e-30 0)
(2.09075e-35 6.3591e-31 0)
(-5.29991e-33 2.3017e-30 0)
(-3.16618e-32 7.7463e-30 0)
(5.57555e-32 7.70202e-29 0)
(1.22749e-31 -1.08929e-28 0)
(-4.11848e-32 -1.98424e-28 0)
(-1.22779e-31 -1.72772e-29 0)
(4.36294e-32 7.66071e-29 0)
(1.22115e-31 -1.14074e-28 0)
(-8.34244e-32 -2.01507e-28 0)
(-9.51351e-32 7.78655e-29 0)
(1.23627e-32 4.45984e-30 0)
(-1.98457e-31 1.39066e-31 0)
(-1.65482e-30 -1.44206e-29 0)
(-2.11939e-31 -1.10192e-28 0)
(-6.58873e-32 -1.33031e-29 0)
(-9.0425e-33 -3.23601e-30 0)
(-1.26253e-33 -4.56514e-31 0)
(-3.03524e-36 -1.39744e-31 0)
(1.1748e-33 -4.09709e-31 0)
(7.13437e-33 -2.96696e-30 0)
(4.18022e-32 -1.02225e-29 0)
(-7.31115e-32 -1.01565e-28 0)
(-1.62586e-31 1.42843e-28 0)
(4.61794e-32 2.63534e-28 0)
(1.16371e-31 3.37652e-29 0)
(1.90737e-32 8.96567e-30 0)
(1.38418e-32 -9.56951e-38 0)
(8.75043e-32 -1.22408e-37 0)
(4.71564e-31 -4.10836e-38 0)
(2.67318e-30 -1.12582e-38 0)
(3.24276e-33 -1.72332e-33 0)
(1.94906e-32 -1.09976e-32 0)
(1.00167e-31 -6.63861e-32 0)
(5.08133e-31 -3.1434e-31 0)
(6.90621e-34 -4.23203e-34 0)
(3.86271e-33 -2.61685e-33 0)
(1.77426e-32 -1.49308e-32 0)
(7.74015e-32 -6.66527e-32 0)
(1.07757e-34 -8.88042e-35 0)
(5.58113e-34 -5.59365e-34 0)
(2.35419e-33 -3.10701e-33 0)
(8.95629e-33 -1.30562e-32 0)
(-1.93044e-36 4.33658e-35 0)
(5.64e-35 1.9843e-35 0)
(2.86149e-34 -4.3063e-34 0)
(1.02756e-33 -1.85535e-33 0)
(-6.81551e-34 4.1597e-34 0)
(-2.99672e-34 7.95266e-34 0)
(-1.29619e-34 1.76314e-34 0)
(6.58272e-35 -1.97477e-34 0)
(-1.15532e-32 1.76454e-33 0)
(-3.80637e-33 4.25986e-33 0)
(-1.4382e-33 1.21123e-33 0)
(-3.25826e-34 2.48184e-34 0)
(-1.38225e-31 6.7234e-33 0)
(-3.46262e-32 2.27958e-32 0)
(-9.51348e-33 5.58204e-33 0)
(-1.90344e-33 1.2054e-33 0)
(-1.12193e-30 -8.85905e-32 0)
(-1.93653e-31 -1.91261e-32 0)
(-4.91406e-32 -3.19152e-33 0)
(-8.7783e-33 -4.93256e-34 0)
(1.37692e-31 -5.85258e-31 0)
(4.37066e-32 -1.3328e-31 0)
(8.73105e-33 -2.19203e-32 0)
(1.33411e-33 -3.48729e-33 0)
(1.58851e-30 -2.13569e-30 0)
(3.75142e-31 -2.94661e-31 0)
(8.14642e-32 -2.93949e-32 0)
(1.35208e-32 -2.19431e-33 0)
(-3.29553e-31 -1.18728e-29 0)
(-9.28024e-32 -1.32529e-30 0)
(-2.17573e-32 -1.11099e-31 0)
(-3.88574e-33 -5.95245e-33 0)
(-3.35381e-30 2.84528e-31 0)
(-8.02169e-31 3.37814e-32 0)
(-1.7665e-31 3.05301e-33 0)
(-2.97185e-32 1.98493e-34 0)
(-2.59131e-31 1.22113e-29 0)
(-7.55534e-32 1.36653e-30 0)
(-1.78407e-32 1.14869e-31 0)
(-3.20637e-33 6.19141e-33 0)
(1.64439e-30 2.20121e-30 0)
(3.9014e-31 3.01072e-31 0)
(8.54267e-32 2.94819e-32 0)
(1.4292e-32 2.0603e-33 0)
(2.83873e-31 5.93121e-31 0)
(8.06637e-32 1.13308e-31 0)
(1.88097e-32 1.67591e-32 0)
(3.34252e-33 2.33731e-33 0)
(2.62046e-33 1.72963e-31 0)
(9.9313e-34 3.68308e-32 0)
(2.93248e-34 6.06356e-33 0)
(6.28091e-35 9.23778e-34 0)
(-2.48957e-31 5.41806e-31 0)
(-6.92892e-32 9.97572e-32 0)
(-1.57359e-32 1.4132e-32 0)
(-2.73275e-33 1.88584e-33 0)
(-1.44517e-30 1.67868e-30 0)
(-3.21637e-31 1.82628e-31 0)
(-6.82457e-32 9.50563e-33 0)
(-1.10497e-32 -1.05943e-33 0)
(2.6576e-30 1.04235e-29 0)
(6.66903e-31 1.03727e-30 0)
(1.49576e-31 7.221e-32 0)
(2.5626e-32 1.34177e-33 0)
(5.76174e-30 -1.75013e-29 0)
(1.3749e-30 -2.07623e-30 0)
(3.02311e-31 -1.87859e-31 0)
(5.07844e-32 -1.2367e-32 0)
(-1.91984e-30 -3.0793e-29 0)
(-4.54648e-31 -3.52985e-30 0)
(-9.9362e-32 -3.05393e-31 0)
(-1.65912e-32 -1.7808e-32 0)
(-5.73637e-30 -4.02868e-30 0)
(-1.3595e-30 -6.43637e-31 0)
(-2.97605e-31 -7.95127e-32 0)
(-4.97779e-32 -8.9469e-33 0)
(2.03081e-30 9.77357e-30 0)
(4.8021e-31 8.49188e-31 0)
(1.04828e-31 3.89514e-32 0)
(1.7488e-32 -3.88244e-33 0)
(5.69422e-30 -1.82097e-29 0)
(1.33607e-30 -2.13754e-30 0)
(2.91417e-31 -1.90525e-31 0)
(4.85562e-32 -1.20155e-32 0)
(-3.90455e-30 -3.05837e-29 0)
(-9.18322e-31 -3.48049e-30 0)
(-2.00963e-31 -3.01931e-31 0)
(-3.35932e-32 -1.81644e-32 0)
(-4.4259e-30 9.85071e-30 0)
(-1.07154e-30 9.54667e-31 0)
(-2.3694e-31 6.79042e-32 0)
(-4.00315e-32 2.10189e-33 0)
(1.3817e-30 1.00578e-30 0)
(2.96123e-31 6.03066e-32 0)
(6.14887e-32 -8.30305e-33 0)
(9.72088e-33 -3.50151e-33 0)
(4.18314e-31 -9.20226e-32 0)
(1.23772e-31 -6.17547e-33 0)
(2.6246e-32 2.36353e-34 0)
(4.2779e-33 4.17298e-34 0)
(6.29789e-31 -3.14539e-30 0)
(2.55633e-31 -4.28896e-31 0)
(4.66365e-32 -4.25061e-32 0)
(7.05457e-33 -3.11805e-33 0)
(-2.29082e-31 -1.69037e-29 0)
(-5.71336e-32 -1.98397e-30 0)
(-1.53323e-32 -1.81463e-31 0)
(-3.02283e-33 -1.29595e-32 0)
(-2.25961e-30 -3.02601e-30 0)
(-5.42187e-31 -4.28812e-31 0)
(-1.20278e-31 -4.48714e-32 0)
(-2.03736e-32 -3.76837e-33 0)
(-3.94016e-31 -7.85329e-31 0)
(-1.12768e-31 -1.51205e-31 0)
(-2.65934e-32 -2.25676e-32 0)
(-4.77421e-33 -3.18767e-33 0)
(-7.06464e-32 -1.25584e-31 0)
(-2.13195e-32 -2.74761e-32 0)
(-5.35364e-33 -4.64652e-33 0)
(-1.008e-33 -7.28435e-34 0)
(-5.75444e-34 -3.98147e-32 0)
(-2.09339e-34 -9.50852e-33 0)
(-6.51868e-35 -1.72957e-33 0)
(-1.44735e-35 -2.89283e-34 0)
(6.57982e-32 -1.10995e-31 0)
(1.95281e-32 -2.33823e-32 0)
(4.81627e-33 -3.80939e-33 0)
(8.91822e-34 -5.74137e-34 0)
(3.37864e-31 -6.9501e-31 0)
(9.44335e-32 -1.26888e-31 0)
(2.15538e-32 -1.77855e-32 0)
(3.76071e-33 -2.34429e-33 0)
(1.90844e-30 -2.21472e-30 0)
(4.25013e-31 -2.40856e-31 0)
(9.021e-32 -1.24995e-32 0)
(1.46111e-32 1.40841e-33 0)
(-3.48743e-30 -1.37486e-29 0)
(-8.75899e-31 -1.36703e-30 0)
(-1.96569e-31 -9.48451e-32 0)
(-3.36966e-32 -1.67752e-33 0)
(-7.64382e-30 2.29972e-29 0)
(-1.82825e-30 2.73878e-30 0)
(-4.02579e-31 2.4955e-31 0)
(-6.77215e-32 1.67596e-32 0)
(2.14497e-30 4.11454e-29 0)
(4.92155e-31 4.76702e-30 0)
(1.06536e-31 4.19743e-31 0)
(1.76089e-32 2.58809e-32 0)
(5.47295e-30 7.70694e-30 0)
(1.32387e-30 1.11424e-30 0)
(2.92716e-31 1.1976e-31 0)
(4.94512e-32 1.05461e-32 0)
(9.11562e-31 2.21557e-30 0)
(2.62311e-31 4.10671e-31 0)
(6.23419e-32 5.8644e-32 0)
(1.12777e-32 7.7974e-33 0)
(1.05908e-29 -2.20252e-39 0)
(7.10563e-29 -3.90617e-40 0)
(6.27149e-29 5.28049e-41 0)
(-6.22584e-29 9.52708e-41 0)
(-6.84975e-29 -4.82692e-41 0)
(3.91371e-31 -1.11421e-40 0)
(7.11124e-29 -5.80777e-41 0)
(7.32157e-29 4.55772e-41 0)
(1.08851e-29 5.63944e-41 0)
(2.54154e-30 1.081e-41 0)
(3.89892e-31 1.49129e-42 0)
(6.20983e-32 -4.41013e-42 0)
(-7.68939e-33 -4.92755e-41 0)
(-1.1878e-31 -4.94235e-40 0)
(-7.16852e-31 -4.63946e-39 0)
(-4.70036e-30 -3.76336e-38 0)
(-1.92819e-29 -2.1414e-37 0)
(-1.35856e-28 6.95687e-37 0)
(-7.10467e-29 4.68017e-35 0)
(6.26581e-29 9.41102e-34 0)
(7.95072e-29 1.29109e-32 0)
(7.57404e-29 1.3312e-31 0)
(1.3761e-29 9.66824e-31 0)
(1.35621e-29 1.33166e-31 0)
(7.39988e-29 1.38052e-32 0)
(7.36617e-29 1.29109e-32 0)
(1.09444e-29 1.20256e-31 0)
(2.57072e-30 8.33704e-31 0)
(4.25958e-31 -8.33703e-31 0)
(1.79282e-31 -1.20161e-31 0)
(7.82877e-31 -1.10053e-32 0)
(5.05553e-30 1.23417e-32 0)
(2.16338e-29 1.36465e-31 0)
(1.45299e-28 9.92052e-31 0)
(1.40546e-28 1.49374e-31 0)
(-3.49248e-29 1.46308e-31 0)
(5.68074e-29 9.66885e-31 0)
(-1.01145e-29 1.21153e-31 0)
(-1.27322e-28 -1.07723e-31 0)
(-1.61237e-29 -8.33942e-31 0)
(1.87102e-30 -1.4574e-30 0)
(8.72689e-30 -9.68396e-31 0)
(7.27643e-30 2.76919e-30 0)
(-7.17844e-30 2.72185e-30 0)
(-8.23823e-30 -1.26442e-30 0)
(8.34746e-32 -2.97007e-30 0)
(8.7393e-30 -1.55301e-30 0)
(9.1302e-30 1.21028e-30 0)
(1.93556e-30 1.50486e-30 0)
(4.84612e-31 2.95441e-31 0)
(8.31157e-32 5.51314e-32 0)
(1.38064e-32 8.16443e-33 0)
(-1.79616e-33 3.1469e-33 0)
(-2.63645e-32 1.48764e-32 0)
(-1.52226e-31 1.02423e-31 0)
(-8.87777e-31 5.36706e-31 0)
(-3.39825e-30 2.72086e-30 0)
(-1.639e-29 9.60934e-31 0)
(-8.72473e-30 -4.08988e-30 0)
(7.26323e-30 -3.27433e-30 0)
(1.01983e-29 -3.4953e-31 0)
(9.59508e-30 1.4209e-30 0)
(2.49101e-30 1.38624e-30 0)
(2.46615e-30 -1.1847e-30 0)
(9.29987e-30 -1.20489e-30 0)
(9.22379e-30 1.27564e-30 0)
(1.93625e-30 1.53623e-30 0)
(5.07265e-31 4.01438e-31 0)
(1.07349e-31 -5.19781e-32 0)
(2.7139e-32 -3.02456e-32 0)
(1.63607e-31 -1.10446e-31 0)
(9.58787e-31 -5.73931e-31 0)
(3.82312e-30 -2.84725e-30 0)
(1.80739e-29 -1.33552e-30 0)
(1.72931e-29 3.69857e-30 0)
(-2.40241e-30 1.89629e-30 0)
(6.28819e-30 -4.36994e-32 0)
(-1.75209e-30 3.67802e-30 0)
(-1.4881e-29 2.44057e-31 0)
(-2.74286e-30 -1.92394e-30 0)
(2.06435e-31 -2.64058e-31 0)
(7.27459e-31 -1.60976e-31 0)
(5.85207e-31 4.98679e-31 0)
(-5.67314e-31 4.88111e-31 0)
(-6.51347e-31 -2.2406e-31 0)
(1.49702e-32 -5.40546e-31 0)
(7.29833e-31 -2.85406e-31 0)
(7.88028e-31 2.11879e-31 0)
(2.17443e-31 2.74642e-31 0)
(7.51591e-32 6.29723e-32 0)
(1.48887e-32 1.24252e-32 0)
(2.75221e-33 1.95158e-33 0)
(-3.81994e-34 7.73692e-34 0)
(-5.24576e-33 3.54309e-33 0)
(-2.69809e-32 2.29809e-32 0)
(-1.35782e-31 1.13753e-31 0)
(-3.62036e-31 4.87869e-31 0)
(-1.36986e-30 1.59169e-31 0)
(-7.26909e-31 -7.35437e-31 0)
(5.82564e-31 -6.05572e-31 0)
(8.73665e-31 -7.48936e-32 0)
(8.59671e-31 2.5608e-31 0)
(3.0506e-31 2.51181e-31 0)
(3.01336e-31 -2.05759e-31 0)
(8.18518e-31 -2.10259e-31 0)
(8.05002e-31 2.27011e-31 0)
(2.18079e-31 2.81882e-31 0)
(7.93097e-32 8.63183e-32 0)
(1.93612e-32 -1.11911e-32 0)
(5.8062e-33 -6.94021e-33 0)
(2.85976e-32 -2.50155e-32 0)
(1.44918e-31 -1.21858e-31 0)
(4.10191e-31 -5.17468e-31 0)
(1.5535e-30 -2.71866e-31 0)
(1.52547e-30 6.50395e-31 0)
(-7.21301e-32 3.5992e-31 0)
(5.14096e-31 3.66827e-32 0)
(-1.87033e-31 6.49887e-31 0)
(-1.23262e-30 5.19248e-32 0)
(-3.23608e-31 -3.22598e-31 0)
(1.69487e-32 -4.85678e-32 0)
(4.30689e-32 -2.87016e-32 0)
(3.35427e-32 9.18775e-32 0)
(-3.11038e-32 8.96858e-32 0)
(-3.40647e-32 -4.10683e-32 0)
(2.01084e-33 -9.98378e-32 0)
(4.3405e-32 -5.30485e-32 0)
(4.99609e-32 3.85258e-32 0)
(1.83764e-32 5.08134e-32 0)
(8.85079e-33 1.23353e-32 0)
(1.9977e-33 2.59843e-33 0)
(4.00126e-34 4.30248e-34 0)
(-5.85694e-35 1.7752e-34 0)
(-7.61411e-34 7.77105e-34 0)
(-3.58828e-33 4.78598e-33 0)
(-1.57576e-32 2.21258e-32 0)
(-2.8234e-32 8.96303e-32 0)
(-8.30066e-32 2.83105e-32 0)
(-4.29786e-32 -1.35606e-31 0)
(3.31505e-32 -1.1263e-31 0)
(5.31199e-32 -1.48675e-32 0)
(5.81946e-32 4.66257e-32 0)
(2.88735e-32 4.47459e-32 0)
(2.86002e-32 -3.75549e-32 0)
(5.40862e-32 -3.82068e-32 0)
(5.22468e-32 4.16781e-32 0)
(1.84032e-32 5.20727e-32 0)
(9.56697e-33 1.55618e-32 0)
(2.76158e-33 -6.8845e-34 0)
(7.66204e-34 -1.17934e-33 0)
(3.7437e-33 -5.12347e-33 0)
(1.66657e-32 -2.34392e-32 0)
(3.26622e-32 -9.42546e-32 0)
(9.80306e-32 -4.41076e-32 0)
(1.02277e-31 1.20252e-31 0)
(5.63953e-33 6.78934e-32 0)
(3.23262e-32 8.31343e-33 0)
(-1.43833e-32 1.19318e-31 0)
(-7.5474e-32 1.12744e-32 0)
(-2.98435e-32 -5.6588e-32 0)
(1.19789e-33 -6.50832e-33 0)
(1.07314e-33 -3.70301e-33 0)
(7.30902e-34 1.23194e-32 0)
(-4.08117e-34 1.19931e-32 0)
(-1.12851e-35 -5.47226e-33 0)
(2.62559e-34 -1.34321e-32 0)
(1.11926e-33 -7.18074e-33 0)
(1.85649e-33 5.0916e-33 0)
(1.38054e-33 6.84768e-33 0)
(1.03882e-33 1.76375e-33 0)
(2.60558e-34 3.8969e-34 0)
(5.59416e-35 6.74576e-35 0)
(-8.53691e-36 2.86645e-35 0)
(-1.0633e-34 1.21345e-34 0)
(-4.64126e-34 7.15124e-34 0)
(-1.82486e-33 3.14642e-33 0)
(-1.76822e-33 1.19842e-32 0)
(-2.51706e-33 3.64238e-33 0)
(-1.05935e-33 -1.81909e-32 0)
(6.75896e-34 -1.52666e-32 0)
(1.48691e-33 -2.13894e-33 0)
(2.81312e-33 6.23325e-33 0)
(2.63102e-33 6.04835e-33 0)
(2.60703e-33 -4.9326e-33 0)
(2.39583e-33 -5.03555e-33 0)
(2.15774e-33 5.57247e-33 0)
(1.38933e-33 7.04739e-33 0)
(1.13564e-33 2.26279e-33 0)
(3.64059e-34 -1.18918e-34 0)
(1.10246e-34 -1.85484e-34 0)
(4.76311e-34 -7.64397e-34 0)
(1.89552e-33 -3.30992e-33 0)
(2.07891e-33 -1.25427e-32 0)
(3.57066e-33 -5.56491e-33 0)
(4.96183e-33 1.61237e-32 0)
(1.62023e-33 9.37148e-33 0)
(1.35824e-33 1.63341e-33 0)
(-8.91367e-34 1.59499e-32 0)
(-2.58545e-33 1.6926e-33 0)
(-2.67401e-33 -7.36881e-33 0)
(6.84627e-35 -8.52154e-34 0)
(-1.22795e-34 -4.79056e-34 0)
(-1.08345e-34 1.63518e-33 0)
(1.46151e-34 1.58852e-33 0)
(2.36568e-34 -7.24047e-34 0)
(3.06855e-35 -1.78486e-33 0)
(-1.15592e-34 -9.58523e-34 0)
(-3.85358e-35 6.69551e-34 0)
(9.92897e-35 9.11011e-34 0)
(1.12451e-34 2.42623e-34 0)
(3.0425e-35 5.58744e-35 0)
(6.84374e-36 1.00163e-35 0)
(-1.07811e-36 4.36808e-36 0)
(-1.29969e-35 1.79511e-35 0)
(-5.38709e-35 1.0223e-34 0)
(-1.95455e-34 4.3068e-34 0)
(-9.17065e-35 1.58713e-33 0)
(1.55313e-34 4.71618e-34 0)
(1.22939e-34 -2.41636e-33 0)
(-1.14903e-34 -2.03799e-33 0)
(-1.25875e-34 -2.96556e-34 0)
(6.31991e-35 8.21711e-34 0)
(2.36204e-34 7.96758e-34 0)
(2.35332e-34 -6.47997e-34 0)
(2.47418e-35 -6.61288e-34 0)
(-3.20901e-36 7.38786e-34 0)
(1.00051e-34 9.38767e-34 0)
(1.25036e-34 3.05992e-34 0)
(4.38238e-35 -8.91541e-36 0)
(1.29728e-35 -2.5351e-35 0)
(5.43438e-35 -1.07951e-34 0)
(1.99742e-34 -4.46696e-34 0)
(1.09688e-34 -1.63755e-33 0)
(-8.58673e-35 -6.29728e-34 0)
(1.22576e-34 2.16082e-33 0)
(2.18412e-34 1.26899e-33 0)
(9.59331e-36 2.47077e-34 0)
(-4.34212e-35 2.11774e-33 0)
(8.63408e-35 2.47494e-34 0)
(-2.37448e-34 -9.5524e-34 0)
(-6.25081e-35 -5.4484e-35 0)
(-3.75838e-35 -4.80234e-35 0)
(-2.39246e-35 1.90725e-34 0)
(2.64947e-35 1.84251e-34 0)
(3.93609e-35 -8.37996e-35 0)
(3.50365e-36 -2.07627e-34 0)
(-2.61148e-35 -1.11965e-34 0)
(-1.7911e-35 7.70517e-35 0)
(7.80435e-36 1.06091e-34 0)
(1.22601e-35 2.91899e-35 0)
(3.47438e-36 6.9387e-36 0)
(8.07612e-37 1.28057e-36 0)
(-1.30167e-37 5.69801e-37 0)
(-1.53289e-36 2.28812e-36 0)
(-6.12456e-36 1.26627e-35 0)
(-2.11635e-35 5.16114e-35 0)
(-4.00289e-36 1.83971e-34 0)
(4.12663e-35 5.33686e-35 0)
(2.69839e-35 -2.80829e-34 0)
(-2.31295e-35 -2.38151e-34 0)
(-3.02367e-35 -3.58317e-35 0)
(-6.88871e-36 9.51897e-35 0)
(2.28372e-35 9.32068e-35 0)
(2.28199e-35 -7.41889e-35 0)
(-1.06743e-35 -7.59216e-35 0)
(-1.38536e-35 8.57506e-35 0)
(7.93126e-36 1.09692e-34 0)
(1.37254e-35 3.72907e-35 0)
(5.03418e-36 -1.34311e-36 0)
(1.54371e-36 -3.26179e-36 0)
(6.07057e-36 -1.32928e-35 0)
(2.11965e-35 -5.28914e-35 0)
(4.19056e-36 -1.87513e-34 0)
(-3.63286e-35 -6.37947e-35 0)
(-9.33515e-36 2.52928e-34 0)
(2.60078e-35 1.50526e-34 0)
(-6.46024e-36 3.37212e-35 0)
(-1.61576e-36 2.46055e-34 0)
(2.99818e-35 3.09148e-35 0)
(-2.27729e-35 -1.09185e-34 0)
(-3.3789e-34 1.75405e-34 0)
(-5.35398e-35 1.96895e-35 0)
(-9.77961e-36 2.4754e-35 0)
(2.30583e-36 2.12411e-35 0)
(4.52885e-36 -9.4439e-36 0)
(3.59899e-37 -2.35663e-35 0)
(-3.26914e-36 -1.27508e-35 0)
(-2.43919e-36 8.68221e-36 0)
(6.60379e-37 1.20538e-35 0)
(1.26034e-36 3.39026e-36 0)
(3.68757e-37 8.26721e-37 0)
(8.76859e-38 1.56028e-37 0)
(-1.4393e-38 7.05709e-38 0)
(-1.66361e-37 2.78092e-37 0)
(-6.47971e-37 1.50568e-36 0)
(-2.16489e-36 5.97483e-36 0)
(-1.31133e-37 2.08359e-35 0)
(5.2914e-36 5.94393e-36 0)
(3.36231e-36 -3.18757e-35 0)
(-2.82792e-36 -2.71232e-35 0)
(-3.83386e-36 -4.18075e-36 0)
(-1.31772e-36 1.07546e-35 0)
(2.21346e-36 1.05627e-35 0)
(2.2243e-36 -8.34174e-36 0)
(-1.66872e-36 -8.54258e-36 0)
(-2.00743e-36 9.72371e-36 0)
(6.72364e-37 1.24836e-35 0)
(1.42467e-36 4.31744e-36 0)
(5.43167e-37 -1.22306e-37 0)
(1.63376e-37 -3.84283e-37 0)
(6.30716e-37 -1.56278e-36 0)
(2.12877e-36 -6.02528e-36 0)
(1.32227e-38 -2.0877e-35 0)
(-4.89797e-36 -5.8324e-36 0)
(-1.88345e-36 2.90315e-35 0)
(2.74674e-36 1.73643e-35 0)
(-9.63544e-37 4.16212e-36 0)
(-8.30884e-39 2.79383e-35 0)
(3.95896e-36 3.71952e-36 0)
(-2.19511e-36 -1.22093e-35 0)
(-1.48672e-33 -6.43363e-35 0)
(-2.10174e-34 -8.06339e-36 0)
(-2.88759e-35 1.42105e-36 0)
(-3.22019e-36 2.0908e-36 0)
(6.52246e-38 -1.00018e-36 0)
(-9.36414e-39 -2.47079e-36 0)
(-3.57433e-37 -1.34003e-36 0)
(-2.70407e-37 9.03133e-37 0)
(6.0113e-38 1.26398e-36 0)
(1.26844e-37 3.62937e-37 0)
(3.78816e-38 9.03062e-38 0)
(9.16018e-39 1.73684e-38 0)
(-1.52459e-39 7.95988e-39 0)
(-1.7374e-38 3.08915e-38 0)
(-6.64052e-38 1.64186e-37 0)
(-2.17186e-37 6.37937e-37 0)
(-8.35963e-40 2.17815e-36 0)
(5.74818e-37 6.11046e-37 0)
(3.62205e-37 -3.33861e-36 0)
(-3.02364e-37 -2.85075e-36 0)
(-4.15552e-37 -4.48726e-37 0)
(-1.57517e-37 1.124e-36 0)
(2.16964e-37 1.11232e-36 0)
(2.1867e-37 -8.64047e-37 0)
(-1.90645e-37 -8.86883e-37 0)
(-2.25418e-37 1.01787e-36 0)
(6.15819e-38 1.31249e-36 0)
(1.44024e-37 4.66602e-37 0)
(5.60847e-38 -1.57603e-38 0)
(1.69745e-38 -4.302e-38 0)
(6.34274e-38 -1.69021e-37 0)
(2.09204e-37 -6.33767e-37 0)
(-2.5583e-38 -2.14755e-36 0)
(-5.39714e-37 -4.83815e-37 0)
(-2.17905e-37 3.07201e-36 0)
(2.806e-37 1.84853e-36 0)
(-1.07388e-37 4.77907e-37 0)
(6.08434e-39 2.92743e-36 0)
(4.33011e-37 4.07757e-37 0)
(-2.13968e-37 -1.2652e-36 0)
(1.44468e-34 -4.55573e-34 0)
(1.21173e-35 -5.58588e-35 0)
(4.9665e-37 -6.23731e-36 0)
(-8.36651e-39 -5.04943e-37 0)
(3.11395e-38 -1.77881e-37 0)
(8.18023e-40 -2.58872e-37 0)
(-3.48247e-38 -1.37211e-37 0)
(-2.66764e-38 9.11634e-38 0)
(5.45772e-39 1.2847e-37 0)
(1.21022e-38 3.74634e-38 0)
(3.67491e-39 9.4742e-39 0)
(9.00239e-40 1.84952e-39 0)
(-1.5161e-40 8.56752e-40 0)
(-1.70704e-39 3.28388e-39 0)
(-6.42977e-39 1.72013e-38 0)
(-2.06666e-38 6.57083e-38 0)
(4.55375e-40 2.20881e-37 0)
(5.62994e-38 6.11737e-38 0)
(3.53864e-38 -3.39097e-37 0)
(-2.94226e-38 -2.90274e-37 0)
(-4.07331e-38 -4.64414e-38 0)
(-1.59833e-38 1.13856e-37 0)
(2.04627e-38 1.13089e-37 0)
(2.07128e-38 -8.70739e-38 0)
(-1.89217e-38 -8.94738e-38 0)
(-2.23074e-38 1.03332e-37 0)
(5.58805e-39 1.33623e-37 0)
(1.3832e-38 4.8229e-38 0)
(5.50246e-39 -1.54226e-39 0)
(1.62886e-39 -4.51558e-39 0)
(6.02204e-39 -1.75092e-38 0)
(1.95102e-38 -6.41477e-38 0)
(-4.20577e-39 -2.13665e-37 0)
(-5.30878e-38 -3.44376e-38 0)
(-2.10794e-38 3.15854e-37 0)
(2.6941e-38 1.90399e-37 0)
(-1.0438e-38 5.14998e-38 0)
(9.6502e-40 2.97476e-37 0)
(4.24728e-38 4.2981e-38 0)
(-2.01005e-38 -1.27241e-37 0)
(1.93125e-33 -9.13274e-35 0)
(2.39633e-34 5.87628e-37 0)
(2.81539e-35 6.15051e-37 0)
(3.10974e-36 1.01805e-37 0)
(3.32492e-37 -1.3178e-39 0)
(3.33114e-38 -2.3308e-38 0)
(-2.4371e-41 -1.3044e-38 0)
(-2.19964e-39 8.70547e-39 0)
(5.18939e-40 1.23236e-38 0)
(1.12208e-39 3.64515e-39 0)
(3.44509e-40 9.34134e-40 0)
(8.52393e-41 1.84715e-40 0)
(-1.44882e-41 8.63308e-41 0)
(-1.61571e-40 3.27483e-40 0)
(-6.01496e-40 1.69393e-39 0)
(-1.90825e-39 6.38176e-39 0)
(6.67351e-41 2.11398e-38 0)
(5.25758e-39 5.78249e-39 0)
(3.30215e-39 -3.24991e-38 0)
(-2.73894e-39 -2.78885e-38 0)
(-3.808e-39 -4.52541e-39 0)
(-1.51441e-39 1.08985e-38 0)
(1.88301e-39 1.08895e-38 0)
(1.91115e-39 -8.27355e-39 0)
(-1.7721e-39 -8.5185e-39 0)
(-2.08973e-39 9.90099e-39 0)
(5.04538e-40 1.2844e-38 0)
(1.28487e-39 4.72808e-39 0)
(5.18409e-40 -1.73462e-40 0)
(1.52032e-40 -4.53356e-40 0)
(5.51896e-40 -1.7077e-39 0)
(1.76219e-39 -6.12514e-39 0)
(-5.35559e-40 -2.00679e-38 0)
(-4.9636e-39 -1.99519e-39 0)
(-1.88103e-39 3.06287e-38 0)
(2.51325e-39 1.85015e-38 0)
(-9.58923e-40 5.24709e-39 0)
(1.08442e-40 2.85254e-38 0)
(3.96506e-39 4.24569e-39 0)
(-1.84206e-39 -1.21068e-38 0)
(-5.84923e-34 6.60967e-35 0)
(-7.61792e-35 5.59469e-35 0)
(-9.3274e-36 8.5087e-36 0)
(-1.06896e-36 1.00618e-36 0)
(-1.16529e-37 1.04634e-37 0)
(-1.21115e-38 8.19276e-39 0)
(-1.4954e-39 -2.38417e-40 0)
(-3.37496e-40 8.92584e-40 0)
(3.21484e-41 1.15171e-39 0)
(9.80938e-41 3.42894e-40 0)
(3.07157e-41 8.87172e-41 0)
(7.68141e-42 1.7721e-41 0)
(-1.31857e-42 8.34172e-42 0)
(-1.45731e-41 3.13716e-41 0)
(-5.37304e-41 1.6062e-40 0)
(-1.68459e-40 5.98292e-40 0)
(7.31912e-42 1.95894e-39 0)
(4.66547e-40 5.3045e-40 0)
(2.9299e-40 -3.01507e-39 0)
(-2.42558e-40 -2.59236e-39 0)
(-3.38413e-40 -4.25519e-40 0)
(-1.35681e-40 1.00962e-39 0)
(1.65998e-40 1.01252e-39 0)
(1.69071e-40 -7.62501e-40 0)
(-1.57091e-40 -7.86085e-40 0)
(-1.8561e-40 9.1834e-40 0)
(4.3759e-41 1.19412e-39 0)
(1.14242e-40 4.45327e-40 0)
(4.67878e-41 -1.6735e-41 0)
(1.33784e-41 -4.32496e-41 0)
(4.82581e-41 -1.60066e-40 0)
(1.52129e-40 -5.63576e-40 0)
(-5.90734e-41 -1.82117e-39 0)
(-4.40533e-40 -5.49445e-41 0)
(-1.58018e-40 2.87817e-39 0)
(2.23796e-40 1.73804e-39 0)
(-8.3398e-41 5.09092e-40 0)
(1.11541e-41 2.64773e-39 0)
(3.51698e-40 4.03928e-40 0)
(-1.61927e-40 -1.11567e-39 0)
(-4.31024e-33 4.55057e-36 0)
(-5.42504e-34 -7.3518e-37 0)
(-6.47113e-35 -1.46671e-37 0)
(-7.24291e-36 -1.87821e-38 0)
(-7.76199e-37 -2.17725e-39 0)
(-7.9124e-38 -4.14151e-40 0)
(-7.7848e-39 -1.29243e-40 0)
(-7.4889e-40 6.898e-41 0)
(-6.26582e-41 1.01247e-40 0)
(2.68463e-42 3.0646e-41 0)
(2.17185e-42 8.01491e-42 0)
(6.29381e-43 1.61644e-42 0)
(-1.18862e-43 7.65857e-43 0)
(-1.26975e-42 2.85942e-42 0)
(-4.64328e-42 1.45091e-41 0)
(-1.4417e-41 5.3534e-41 0)
(7.14371e-43 1.73394e-40 0)
(4.00451e-41 4.65032e-41 0)
(2.51492e-41 -2.67151e-40 0)
(-2.0789e-41 -2.30124e-40 0)
(-2.90831e-41 -3.81536e-41 0)
(-1.17173e-41 8.94074e-41 0)
(1.41967e-41 9.01009e-41 0)
(1.44967e-41 -6.70915e-41 0)
(-1.34604e-41 -6.92914e-41 0)
(-1.59336e-41 8.1365e-41 0)
(3.70079e-42 1.0606e-40 0)
(9.82983e-42 4.01559e-41 0)
(4.07122e-42 -1.68412e-42 0)
(1.1427e-42 -3.96691e-42 0)
(4.07846e-42 -1.43048e-41 0)
(1.27105e-41 -4.94945e-41 0)
(-6.07892e-42 -1.57832e-40 0)
(-3.78074e-41 6.22475e-42 0)
(-1.26979e-41 2.58244e-40 0)
(1.93568e-41 1.55899e-40 0)
(-7.01209e-42 4.71742e-41 0)
(1.05717e-42 2.34731e-40 0)
(3.01698e-41 3.65542e-41 0)
(-1.38088e-41 -9.83599e-41 0)
(-4.82727e-34 -6.28314e-35 0)
(-6.28618e-35 -5.73735e-35 0)
(-7.67853e-36 -8.77171e-36 0)
(-8.78102e-37 -1.0395e-36 0)
(-9.5687e-38 -1.09622e-37 0)
(-9.90252e-39 -1.08852e-38 0)
(-9.85388e-40 -1.03436e-39 0)
(-9.51086e-41 -8.70469e-41 0)
(-8.28147e-42 5.59948e-43 0)
(-5.7418e-44 1.96523e-42 0)
(1.56893e-43 6.43014e-43 0)
(5.07086e-44 1.3767e-43 0)
(-1.01696e-44 6.73684e-44 0)
(-1.06285e-43 2.51265e-43 0)
(-3.85991e-43 1.26556e-42 0)
(-1.18774e-42 4.63277e-42 0)
(6.51855e-44 1.48709e-41 0)
(3.30614e-42 3.95594e-42 0)
(2.07655e-42 -2.29319e-41 0)
(-1.71424e-42 -1.97843e-41 0)
(-2.40431e-42 -3.30782e-42 0)
(-9.73234e-43 7.66962e-42 0)
(1.16907e-42 7.75631e-42 0)
(1.19742e-42 -5.7262e-42 0)
(-1.10892e-42 -5.92211e-42 0)
(-1.31551e-42 6.9838e-42 0)
(3.01083e-43 9.1215e-42 0)
(8.14736e-43 3.49262e-42 0)
(3.41376e-43 -1.54317e-43 0)
(9.31451e-44 -3.48696e-43 0)
(3.31289e-43 -1.23287e-42 0)
(1.02163e-42 -4.1984e-42 0)
(-5.82959e-43 -1.32316e-41 0)
(-3.12077e-42 1.5298e-42 0)
(-9.77131e-43 2.24613e-41 0)
(1.61097e-42 1.35363e-41 0)
(-5.66769e-43 4.19638e-42 0)
(9.61418e-44 2.0159e-41 0)
(2.49008e-42 3.19464e-42 0)
(-1.13496e-42 -8.4042e-42 0)
(2.0629e-33 5.95754e-35 0)
(2.58582e-34 -5.7577e-36 0)
(3.07366e-35 -1.29475e-36 0)
(3.42989e-36 -1.68635e-37 0)
(3.66635e-37 -1.84856e-38 0)
(3.72889e-38 -1.87092e-39 0)
(3.64975e-39 -1.79454e-40 0)
(3.42523e-40 -1.58934e-41 0)
(3.10931e-41 -7.27339e-43 0)
(2.7732e-42 9.76802e-44 0)
(2.481e-43 4.8455e-44 0)
(2.34363e-44 1.11838e-44 0)
(7.12125e-46 5.67831e-45 0)
(-8.4962e-45 2.11913e-44 0)
(-3.11014e-44 1.0604e-43 0)
(-9.49942e-44 3.8558e-43 0)
(5.64275e-45 1.2274e-42 0)
(2.64871e-43 3.24014e-43 0)
(1.6638e-43 -1.8942e-42 0)
(-1.37193e-43 -1.63661e-42 0)
(-1.92843e-43 -2.75654e-43 0)
(-7.83486e-44 6.33468e-43 0)
(9.347e-44 6.43289e-43 0)
(9.59732e-44 -4.70226e-43 0)
(-8.86709e-44 -4.87136e-43 0)
(-1.05386e-43 5.76898e-43 0)
(2.38353e-44 7.54999e-43 0)
(6.54855e-44 2.92647e-43 0)
(2.76963e-44 -1.41531e-44 0)
(7.37203e-45 -2.95926e-44 0)
(2.60669e-44 -1.02108e-43 0)
(7.95956e-44 -3.42433e-43 0)
(-5.33426e-44 -1.06695e-42 0)
(-2.4997e-43 2.0706e-43 0)
(-7.2295e-44 1.87969e-42 0)
(1.3033e-43 1.13074e-42 0)
(-4.44585e-44 3.5897e-43 0)
(8.31436e-45 1.66604e-42 0)
(1.99436e-43 2.67978e-43 0)
(-9.05738e-44 -6.91792e-43 0)
(4.98793e-34 2.75667e-34 0)
(6.44828e-35 3.07943e-35 0)
(7.82983e-36 3.33414e-36 0)
(8.90951e-37 3.51528e-37 0)
(9.66866e-38 3.55358e-38 0)
(9.97023e-39 3.46814e-39 0)
(9.87051e-40 3.25012e-40 0)
(9.36234e-41 2.9484e-41 0)
(8.56804e-42 2.6305e-42 0)
(7.59644e-43 2.35698e-43 0)
(6.58538e-44 2.26261e-44 0)
(5.68066e-45 2.40322e-45 0)
(3.64533e-46 5.80806e-46 0)
(-6.41258e-46 1.73793e-45 0)
(-2.42197e-45 8.60471e-45 0)
(-7.35018e-45 3.11099e-44 0)
(4.67442e-46 9.83234e-44 0)
(2.05253e-44 2.57827e-44 0)
(1.28945e-44 -1.51841e-43 0)
(-1.06214e-44 -1.31359e-43 0)
(-1.49613e-44 -2.22646e-44 0)
(-6.10187e-45 5.0774e-44 0)
(7.23027e-45 5.17315e-44 0)
(7.4443e-45 -3.75046e-44 0)
(-6.85787e-45 -3.89085e-44 0)
(-8.16661e-45 4.62463e-44 0)
(1.82411e-45 6.06274e-44 0)
(5.09395e-45 2.37329e-44 0)
(2.17481e-45 -1.21787e-45 0)
(5.61124e-46 -2.4211e-45 0)
(1.98144e-45 -8.18185e-45 0)
(5.99402e-45 -2.70457e-44 0)
(-4.64252e-45 -8.33809e-44 0)
(-1.93671e-44 2.32624e-44 0)
(-5.14067e-45 1.52712e-43 0)
(1.01993e-44 9.1615e-44 0)
(-3.37229e-45 2.96366e-44 0)
(6.94382e-46 1.33615e-43 0)
(1.54536e-44 2.17692e-44 0)
(-6.99809e-45 -5.52799e-44 0)
(1.10121e-35 1.17016e-34 0)
(1.59803e-36 1.3652e-35 0)
(2.13142e-37 1.52033e-36 0)
(2.60708e-38 1.62975e-37 0)
(3.0006e-39 1.66815e-38 0)
(3.24491e-40 1.6429e-39 0)
(3.34155e-41 1.55228e-40 0)
(3.27537e-42 1.41588e-41 0)
(3.08303e-43 1.24921e-42 0)
(2.81516e-44 1.07374e-43 0)
(2.52893e-45 9.11024e-45 0)
(2.30791e-46 7.7664e-46 0)
(1.18158e-47 9.16031e-47 0)
(-4.99848e-47 1.40376e-46 0)
(-1.8351e-46 6.74714e-46 0)
(-5.53152e-46 2.42672e-45 0)
(3.72273e-47 7.61885e-45 0)
(1.54664e-45 1.98532e-45 0)
(9.71741e-46 -1.17728e-44 0)
(-7.99701e-46 -1.0197e-44 0)
(-1.12856e-45 -1.73796e-45 0)
(-4.6179e-46 3.93778e-45 0)
(5.43983e-46 4.02666e-45 0)
(5.61412e-46 -2.89319e-45 0)
(-5.15863e-46 -3.00634e-45 0)
(-6.15382e-46 3.58607e-45 0)
(1.35959e-46 4.70924e-45 0)
(3.85113e-46 1.86252e-45 0)
(1.65734e-46 -1.03147e-46 0)
(4.15172e-47 -1.91895e-46 0)
(1.4622e-46 -6.33393e-46 0)
(4.38354e-46 -2.06432e-45 0)
(-3.88833e-46 -6.29817e-45 0)
(-1.45913e-45 2.31638e-45 0)
(-3.51496e-46 1.19993e-44 0)
(7.76959e-46 7.17822e-45 0)
(-2.48729e-46 2.36461e-45 0)
(5.5749e-47 1.0365e-44 0)
(1.16443e-45 1.70753e-45 0)
(-5.25949e-46 -4.27595e-45 0)
(-3.97917e-34 2.13363e-34 0)
(-5.04797e-35 2.31137e-35 0)
(-6.02464e-36 2.44795e-36 0)
(-6.76147e-37 2.54236e-37 0)
(-7.25001e-38 2.54004e-38 0)
(-7.40252e-39 2.45628e-39 0)
(-7.26634e-40 2.28368e-40 0)
(-6.8435e-41 2.05419e-41 0)
(-6.22223e-42 1.7839e-42 0)
(-5.45702e-43 1.50269e-43 0)
(-4.63536e-44 1.22787e-44 0)
(-3.81263e-45 9.77298e-46 0)
(-3.05218e-46 7.77188e-47 0)
(-2.74562e-47 1.60354e-47 0)
(-1.52855e-47 5.17362e-47 0)
(-4.05534e-47 1.83956e-46 0)
(2.85088e-48 5.74094e-46 0)
(1.1315e-46 1.48763e-46 0)
(7.10989e-47 -8.8756e-46 0)
(-5.84621e-47 -7.69578e-46 0)
(-8.26518e-47 -1.318e-46 0)
(-3.39338e-47 2.96955e-46 0)
(3.97419e-47 3.04595e-46 0)
(4.11187e-47 -2.17141e-46 0)
(-3.76753e-47 -2.25959e-46 0)
(-4.50236e-47 2.70384e-46 0)
(9.83528e-48 3.55607e-46 0)
(2.82759e-47 1.41882e-46 0)
(1.22648e-47 -8.32955e-48 0)
(2.96953e-48 -1.47264e-47 0)
(1.04629e-47 -4.75745e-47 0)
(3.10929e-47 -1.52944e-46 0)
(-3.12899e-47 -4.61972e-46 0)
(-1.06733e-46 2.14135e-46 0)
(-2.309e-47 9.16977e-46 0)
(5.74697e-47 5.46677e-46 0)
(-1.78059e-47 1.82803e-46 0)
(4.33704e-48 7.81787e-46 0)
(8.51979e-47 1.30043e-46 0)
(-3.84028e-47 -3.21688e-46 0)
(-1.55879e-33 -3.39248e-34 0)
(-1.91261e-34 -5.24662e-35 0)
(-2.23578e-35 -6.47968e-36 0)
(-2.45704e-36 -7.22253e-37 0)
(-2.59349e-37 -7.4852e-38 0)
(-2.60752e-38 -7.39544e-39 0)
(-2.5273e-39 -6.98392e-40 0)
(-2.35136e-40 -6.35957e-41 0)
(-2.11538e-41 -5.5817e-42 0)
(-1.83664e-42 -4.74393e-43 0)
(-1.54619e-43 -3.90363e-44 0)
(-1.26124e-44 -3.11937e-45 0)
(-1.00004e-45 -2.41976e-46 0)
(-7.73348e-47 -1.753e-47 0)
(-6.75076e-48 2.44164e-48 0)
(-3.3012e-48 1.34323e-47 0)
(1.82441e-49 4.19928e-47 0)
(8.06274e-48 1.08258e-47 0)
(5.06792e-48 -6.49623e-47 0)
(-4.16415e-48 -5.63837e-47 0)
(-5.89674e-48 -9.69766e-48 0)
(-2.42824e-48 2.17465e-47 0)
(2.82913e-48 2.23788e-47 0)
(2.93377e-48 -1.5822e-47 0)
(-2.68111e-48 -1.64903e-47 0)
(-3.20928e-48 1.9793e-47 0)
(6.93882e-49 2.60705e-47 0)
(2.02193e-48 1.04948e-47 0)
(8.83078e-49 -6.57862e-49 0)
(2.06748e-49 -1.09793e-48 0)
(7.28291e-49 -3.46565e-48 0)
(2.14559e-48 -1.09908e-47 0)
(-2.43564e-48 -3.28672e-47 0)
(-7.60645e-48 1.85605e-47 0)
(-1.4543e-48 6.80281e-47 0)
(4.14434e-48 4.04128e-47 0)
(-1.24162e-48 1.37084e-47 0)
(3.26345e-49 5.72481e-47 0)
(6.0733e-48 9.60338e-48 0)
(-2.73255e-48 -2.35087e-47 0)
(3.75559e-33 -5.25758e-34 0)
(4.77337e-34 -1.01295e-34 0)
(5.73284e-35 -1.30909e-35 0)
(6.45712e-36 -1.47342e-36 0)
(6.95402e-37 -1.52492e-37 0)
(7.12046e-38 -1.50067e-38 0)
(7.0091e-39 -1.41044e-39 0)
(6.61383e-40 -1.27869e-40 0)
(6.02365e-41 -1.1176e-41 0)
(5.28908e-42 -9.46326e-43 0)
(4.49734e-43 -7.76027e-44 0)
(3.70238e-44 -6.18225e-45 0)
(2.95988e-45 -4.78505e-46 0)
(2.29825e-46 -3.60086e-47 0)
(1.73064e-47 -2.37533e-48 0)
(1.07937e-48 7.79366e-49 0)
(1.07152e-49 2.98027e-48 0)
(5.66101e-49 7.67084e-49 0)
(3.52177e-49 -4.63213e-48 0)
(-2.88772e-49 -4.02405e-48 0)
(-4.09604e-49 -6.94702e-49 0)
(-1.69183e-49 1.55148e-48 0)
(1.96111e-49 1.60121e-48 0)
(2.03842e-49 -1.12359e-48 0)
(-1.85773e-49 -1.17275e-48 0)
(-2.22735e-49 1.41154e-48 0)
(4.76555e-50 1.86173e-48 0)
(1.40793e-49 7.55384e-49 0)
(6.19068e-50 -5.0008e-50 0)
(1.39659e-50 -7.95199e-50 0)
(4.92932e-50 -2.45545e-49 0)
(1.43972e-49 -7.68308e-49 0)
(-1.83289e-49 -2.27491e-48 0)
(-5.27797e-49 1.53282e-48 0)
(-8.75809e-50 4.91726e-48 0)
(2.91019e-49 2.90965e-48 0)
(-8.42663e-50 9.99091e-49 0)
(2.38612e-50 4.08387e-48 0)
(4.21564e-49 6.90168e-49 0)
(-1.89402e-49 -1.67404e-48 0)
(7.35647e-33 -3.22804e-34 0)