/*--------------------------------*- C++ -*----------------------------------*\
| =========                 |                                                 |
| \\      /  F ield         | OpenFOAM: The Open Source CFD Toolbox           |
|  \\    /   O peration     | Version:  2.4.0                                 |
|   \\  /    A nd           | Web:      www.OpenFOAM.org                      |
|    \\/     M anipulation  |                                                 |
\*---------------------------------------------------------------------------*/
FoamFile
{
    version     2.0;
    format      ascii;
    class       surfaceScalarField;
    location    "0.7";
    object      phi;
}
// * * * * * * * * * * * * * * * * * * * * * * * * * * * * * * * * * * * * * //

dimensions      [0 3 -1 0 0 0 0];

internalField   nonuniform List<scalar> 
3120
(
2.53451e-09
-2.55094e-09
4.09743e-09
-1.56292e-09
2.25425e-09
1.84318e-09
-3.55406e-09
5.80831e-09
-1.31383e-08
9.58421e-09
-2.59896e-08
1.28513e-08
-4.14683e-08
1.54787e-08
-5.88978e-08
1.74295e-08
-7.76102e-08
1.87124e-08
-9.69686e-08
1.93584e-08
-1.16379e-07
1.941e-08
-1.35294e-07
1.89153e-08
-1.5322e-07
1.79258e-08
-1.69714e-07
1.6494e-08
-1.84387e-07
1.46733e-08
-1.96904e-07
1.25174e-08
-2.06985e-07
1.00806e-08
-2.14403e-07
7.41802e-09
-2.18989e-07
4.58587e-09
-2.20631e-07
1.64201e-09
-2.19277e-07
-1.35369e-09
-2.14938e-07
-4.33916e-09
-2.07688e-07
-7.24993e-09
-1.97669e-07
-1.00194e-08
-1.8509e-07
-1.2579e-08
-1.7023e-07
-1.48594e-08
-1.53439e-07
-1.67909e-08
-1.35134e-07
-1.83051e-08
-1.15798e-07
-1.93365e-08
-9.59737e-08
-1.98239e-08
-7.62605e-08
-1.97133e-08
-5.73009e-08
-1.89597e-08
-3.97696e-08
-1.75313e-08
-2.43545e-08
-1.54151e-08
-1.17279e-08
-1.26267e-08
-2.49567e-09
-9.23215e-09
2.89832e-09
-5.39395e-09
4.35965e-09
-1.46132e-09
2.56207e-09
1.79756e-09
2.56204e-09
1.61514e-09
-4.16608e-09
-1.17353e-09
1.22575e-09
-1.17194e-08
1.23891e-08
-3.10824e-08
2.51714e-08
-5.90612e-08
3.7563e-08
-9.47119e-08
4.8502e-08
-1.36685e-07
5.74518e-08
-1.8344e-07
6.4185e-08
-2.33378e-07
6.86501e-08
-2.84916e-07
7.08967e-08
-3.36541e-07
7.10343e-08
-3.86833e-07
6.92082e-08
-4.34493e-07
6.55857e-08
-4.78346e-07
6.0347e-08
-5.17354e-07
5.36808e-08
-5.50618e-07
4.57815e-08
-5.77386e-07
3.68484e-08
-5.97053e-07
2.70857e-08
-6.0917e-07
1.67028e-08
-6.13444e-07
5.91571e-09
-6.09745e-07
-5.05274e-09
-5.98112e-07
-1.59722e-08
-5.78757e-07
-2.66049e-08
-5.5207e-07
-3.67068e-08
-5.1862e-07
-4.6029e-08
-4.79158e-07
-5.43208e-08
-4.34615e-07
-6.13339e-08
-3.86093e-07
-6.68272e-08
-3.34857e-07
-7.05731e-08
-2.82315e-07
-7.23657e-08
-2.29998e-07
-7.20296e-08
-1.79526e-07
-6.9432e-08
-1.32559e-07
-6.44986e-08
-9.07366e-08
-5.72373e-08
-5.55874e-08
-4.7776e-08
-2.83881e-08
-3.64315e-08
-9.94971e-09
-2.38323e-08
-2.91236e-10
-1.11198e-08
1.85506e-09
-3.48713e-10
4.41708e-09
-1.66888e-09
-2.49721e-09
-1.21213e-08
1.16781e-08
-3.41006e-08
3.43684e-08
-6.84699e-08
5.95407e-08
-1.14816e-07
8.39089e-08
-1.71852e-07
1.05539e-07
-2.37746e-07
1.23345e-07
-3.10358e-07
1.36798e-07
-3.87421e-07
1.45712e-07
-4.66647e-07
1.50124e-07
-5.45818e-07
1.50205e-07
-6.22831e-07
1.46221e-07
-6.95738e-07
1.38493e-07
-7.62772e-07
1.27381e-07
-8.22363e-07
1.13271e-07
-8.73148e-07
9.65672e-08
-9.13987e-07
7.76866e-08
-9.43962e-07
5.70606e-08
-9.62392e-07
3.51336e-08
-9.6884e-07
1.23635e-08
-9.63116e-07
-1.0777e-08
-9.45287e-07
-3.38008e-08
-9.15686e-07
-5.62065e-08
-8.74911e-07
-7.74816e-08
-8.23833e-07
-9.71063e-08
-7.63594e-07
-1.1456e-07
-6.95598e-07
-1.2933e-07
-6.21502e-07
-1.40923e-07
-5.43195e-07
-1.4888e-07
-4.6277e-07
-1.52791e-07
-3.82481e-07
-1.52319e-07
-3.04687e-07
-1.47226e-07
-2.31781e-07
-1.37404e-07
-1.6609e-07
-1.22929e-07
-1.09736e-07
-1.0413e-07
-6.44635e-08
-8.17038e-08
-3.139e-08
-5.69058e-08
-1.06932e-08
-3.18165e-08
-1.23881e-09
-9.80309e-09
3.17828e-09
-5.57086e-09
3.07365e-09
-2.49864e-08
3.10937e-08
-5.97046e-08
6.90867e-08
-1.09902e-07
1.09738e-07
-1.74687e-07
1.48694e-07
-2.52353e-07
1.83205e-07
-3.40627e-07
2.11619e-07
-4.36891e-07
2.33062e-07
-5.38354e-07
2.47176e-07
-6.42187e-07
2.53956e-07
-7.45618e-07
2.53636e-07
-8.46007e-07
2.46609e-07
-9.40891e-07
2.33377e-07
-1.02803e-06
2.14518e-07
-1.10542e-06
1.9066e-07
-1.17132e-06
1.6247e-07
-1.22428e-06
1.30644e-07
-1.26312e-06
9.59024e-08
-1.28698e-06
5.89916e-08
-1.29529e-06
2.06804e-08
-1.28783e-06
-1.82379e-08
-1.26469e-06
-5.69466e-08
-1.22628e-06
-9.46076e-08
-1.1734e-06
-1.30366e-07
-1.10715e-06
-1.63359e-07
-1.02898e-06
-1.92725e-07
-9.40692e-07
-2.1762e-07
-8.44378e-07
-2.37237e-07
-7.42428e-07
-2.50831e-07
-6.37472e-07
-2.57747e-07
-5.32334e-07
-2.57457e-07
-4.29953e-07
-2.49607e-07
-3.33291e-07
-2.34066e-07
-2.45212e-07
-2.11008e-07
-1.68331e-07
-1.81011e-07
-1.04825e-07
-1.4521e-07
-5.62119e-08
-1.05519e-07
-2.31064e-08
-6.4922e-08
-4.98752e-09
-2.79219e-08
-1.8092e-09
-9.47193e-09
1.25456e-08
-3.81874e-08
5.98092e-08
-8.61053e-08
1.17005e-07
-1.52439e-07
1.76072e-07
-2.3562e-07
2.31875e-07
-3.33409e-07
2.80993e-07
-4.43066e-07
3.21277e-07
-5.61525e-07
3.5152e-07
-6.85547e-07
3.71198e-07
-8.11854e-07
3.80263e-07
-9.37229e-07
3.79012e-07
-1.0586e-06
3.67978e-07
-1.17309e-06
3.47867e-07
-1.27807e-06
3.19503e-07
-1.37121e-06
2.83794e-07
-1.45045e-06
2.41714e-07
-1.51409e-06
1.94282e-07
-1.56075e-06
1.42561e-07
-1.58941e-06
8.76496e-08
-1.59941e-06
3.06835e-08
-1.59048e-06
-2.71664e-08
-1.56273e-06
-8.46958e-08
-1.51667e-06
-1.40671e-07
-1.4532e-06
-1.93838e-07
-1.37363e-06
-2.42929e-07
-1.27966e-06
-2.86687e-07
-1.1734e-06
-3.23883e-07
-1.05729e-06
-3.53346e-07
-9.34123e-07
-3.74001e-07
-8.06957e-07
-3.84912e-07
-6.79078e-07
-3.85337e-07
-5.539e-07
-3.74785e-07
-4.34862e-07
-3.53103e-07
-3.25303e-07
-3.20567e-07
-2.28303e-07
-2.78012e-07
-1.46512e-07
-2.27001e-07
-8.19669e-08
-1.70064e-07
-3.59254e-08
-1.10964e-07
-8.75827e-09
-5.5089e-08
-1.05674e-08
-1.31673e-08
2.57129e-08
-5.10454e-08
9.76873e-08
-1.12132e-07
1.78091e-07
-1.94566e-07
2.58506e-07
-2.95974e-07
3.33283e-07
-4.13489e-07
3.98508e-07
-5.43851e-07
4.51639e-07
-6.83535e-07
4.91205e-07
-8.28881e-07
5.16544e-07
-9.7621e-07
5.27593e-07
-1.12193e-06
5.24727e-07
-1.26259e-06
5.08645e-07
-1.395e-06
4.80278e-07
-1.51623e-06
4.40723e-07
-1.62363e-06
3.91202e-07
-1.71494e-06
3.33026e-07
-1.78824e-06
2.67579e-07
-1.84198e-06
1.96302e-07
-1.87502e-06
1.20692e-07
-1.88663e-06
4.22928e-08
-1.8765e-06
-3.73031e-08
-1.84473e-06
-1.16459e-07
-1.79191e-06
-1.935e-07
-1.71902e-06
-2.66723e-07
-1.62753e-06
-3.34415e-07
-1.51935e-06
-3.94873e-07
-1.39679e-06
-4.46438e-07
-1.26261e-06
-4.87533e-07
-1.11989e-06
-5.16713e-07
-9.72079e-07
-5.32726e-07
-8.22835e-07
-5.3458e-07
-6.75991e-07
-5.2163e-07
-5.35423e-07
-4.93671e-07
-4.04926e-07
-4.51064e-07
-2.88068e-07
-3.9487e-07
-1.88036e-07
-3.27033e-07
-1.07492e-07
-2.50608e-07
-4.84672e-08
-1.69988e-07
-1.23399e-08
-9.12163e-08
-2.29073e-08
-1.66168e-08
4.23297e-08
-6.33338e-08
1.44404e-07
-1.3732e-07
2.52077e-07
-2.3563e-07
3.56817e-07
-3.55021e-07
4.52673e-07
-4.91926e-07
5.35413e-07
-6.42512e-07
6.02225e-07
-8.0277e-07
6.51462e-07
-9.68615e-07
6.82389e-07
-1.13599e-06
6.94967e-07
-1.30095e-06
6.89692e-07
-1.45976e-06
6.67454e-07
-1.60892e-06
6.29439e-07
-1.74525e-06
5.7705e-07
-1.8659e-06
5.11848e-07
-1.96838e-06
4.35515e-07
-2.05063e-06
3.49828e-07
-2.11097e-06
2.56639e-07
-2.14815e-06
1.57873e-07
-2.16137e-06
5.55151e-08
-2.15029e-06
-4.83876e-08
-2.11502e-06
-1.51732e-07
-2.05615e-06
-2.52368e-07
-1.97476e-06
-3.48108e-07
-1.87243e-06
-4.36753e-07
-1.75118e-06
-5.16119e-07
-1.61354e-06
-5.84074e-07
-1.46248e-06
-6.38597e-07
-1.30136e-06
-6.77831e-07
-1.13392e-06
-7.00167e-07
-9.64174e-07
-7.04326e-07
-7.96338e-07
-6.89465e-07
-6.34717e-07
-6.55293e-07
-4.83576e-07
-6.02204e-07
-3.47014e-07
-5.31432e-07
-2.2882e-07
-4.45227e-07
-1.32363e-07
-3.47065e-07
-6.05195e-08
-2.41831e-07
-1.56938e-08
-1.36042e-07
-3.86012e-08
-1.98493e-08
6.2179e-08
-7.50564e-08
1.99611e-07
-1.61606e-07
3.38627e-07
-2.75502e-07
4.70713e-07
-4.12609e-07
5.8978e-07
-5.68618e-07
6.91422e-07
-7.39079e-07
7.72686e-07
-9.19465e-07
8.31849e-07
-1.10525e-06
8.68178e-07
-1.29202e-06
8.81729e-07
-1.47549e-06
8.73163e-07
-1.65164e-06
8.43608e-07
-1.81674e-06
7.9454e-07
-1.96739e-06
7.27699e-07
-2.10056e-06
6.45017e-07
-2.21362e-06
5.48573e-07
-2.30435e-06
4.40561e-07
-2.37099e-06
3.23272e-07
-2.41219e-06
1.99078e-07
-2.42711e-06
7.04292e-08
-2.41534e-06
-6.01492e-08
-2.37701e-06
-1.90064e-07
-2.31272e-06
-3.16664e-07
-2.22357e-06
-4.37251e-07
-2.11122e-06
-5.4911e-07
-1.97779e-06
-6.49539e-07
-1.82597e-06
-7.35902e-07
-1.65888e-06
-8.05688e-07
-1.48012e-06
-8.56587e-07
-1.2937e-06
-8.86585e-07
-1.10396e-06
-8.94064e-07
-9.15497e-07
-8.77931e-07
-7.33044e-07
-8.37747e-07
-5.61373e-07
-7.73876e-07
-4.05156e-07
-6.87648e-07
-2.68848e-07
-5.81536e-07
-1.56581e-07
-4.59331e-07
-7.21167e-08
-3.26296e-07
-1.88567e-08
-1.89302e-07
-5.74579e-08
-2.29171e-08
8.50961e-08
-8.63187e-08
2.63013e-07
-1.85125e-07
4.37433e-07
-3.14333e-07
5.99921e-07
-4.68916e-07
7.44362e-07
-6.43797e-07
8.66303e-07
-8.33874e-07
9.62764e-07
-1.03408e-06
1.03205e-06
-1.23943e-06
1.07353e-06
-1.44513e-06
1.08743e-06
-1.64659e-06
1.07463e-06
-1.83954e-06
1.03655e-06
-2.02e-06
9.7501e-07
-2.18442e-06
8.92118e-07
-2.32961e-06
7.90208e-07
-2.45282e-06
6.71783e-07
-2.55174e-06
5.39477e-07
-2.6245e-06
3.96032e-07
-2.66971e-06
2.44287e-07
-2.68645e-06
8.71721e-08
-2.6743e-06
-7.22976e-08
-2.63334e-06
-2.31025e-07
-2.56417e-06
-3.85839e-07
-2.46791e-06
-5.33512e-07
-2.34623e-06
-6.70789e-07
-2.20135e-06
-7.94422e-07
-2.03602e-06
-9.01232e-07
-1.85353e-06
-9.88178e-07
-1.65767e-06
-1.05245e-06
-1.45268e-06
-1.09157e-06
-1.24324e-06
-1.10351e-06
-1.03429e-06
-1.08688e-06
-8.31047e-07
-1.04099e-06
-6.38809e-07
-9.66114e-07
-4.62874e-07
-8.63584e-07
-3.08413e-07
-7.35997e-07
-1.80371e-07
-5.87373e-07
-8.34072e-08
-4.2326e-07
-2.18928e-08
-2.50816e-07
-7.93507e-08
-2.5876e-08
1.10972e-07
-9.72619e-08
3.34399e-07
-2.08095e-07
5.48266e-07
-3.52407e-07
7.44234e-07
-5.24284e-07
9.16239e-07
-7.17863e-07
1.05988e-06
-9.2737e-07
1.17227e-06
-1.14717e-06
1.25185e-06
-1.37181e-06
1.29817e-06
-1.5961e-06
1.31172e-06
-1.81517e-06
1.29369e-06
-2.02448e-06
1.24585e-06
-2.21988e-06
1.17041e-06
-2.39764e-06
1.06988e-06
-2.55448e-06
9.47044e-07
-2.68754e-06
8.04841e-07
-2.79443e-06
6.46368e-07
-2.87323e-06
4.74832e-07
-2.92249e-06
2.93548e-07
-2.94124e-06
1.05927e-07
-2.92902e-06
-8.45168e-08
-2.88587e-06
-2.74177e-07
-2.81235e-06
-4.59358e-07
-2.70958e-06
-6.36287e-07
-2.57922e-06
-8.0115e-07
-2.42351e-06
-9.50129e-07
-2.24527e-06
-1.07947e-06
-2.0479e-06
-1.18555e-06
-1.83535e-06
-1.265e-06
-1.61209e-06
-1.31482e-06
-1.38308e-06
-1.33252e-06
-1.15367e-06
-1.31628e-06
-9.29548e-07
-1.26512e-06
-7.16581e-07
-1.17908e-06
-5.20742e-07
-1.05942e-06
-3.47968e-07
-9.08771e-07
-2.04056e-07
-7.31285e-07
-9.45847e-08
-5.32731e-07
-2.48732e-08
-3.20528e-07
-1.04224e-07
-2.87782e-08
1.3975e-07
-1.08033e-07
4.13653e-07
-2.30763e-07
6.70996e-07
-3.9006e-07
9.0353e-07
-5.79119e-07
1.1053e-06
-7.91282e-07
1.27205e-06
-1.02008e-06
1.40107e-06
-1.25929e-06
1.49106e-06
-1.50298e-06
1.54187e-06
-1.74559e-06
1.55433e-06
-1.98192e-06
1.53002e-06
-2.20721e-06
1.47115e-06
-2.41714e-06
1.38035e-06
-2.60788e-06
1.26062e-06
-2.77602e-06
1.11519e-06
-2.91867e-06
9.47486e-07
-3.03337e-06
7.61071e-07
-3.11816e-06
5.59626e-07
-3.17156e-06
3.46942e-07
-3.19254e-06
1.26912e-07
-3.1806e-06
-9.64599e-08
-3.13572e-06
-3.19059e-07
-3.05841e-06
-5.36662e-07
-2.94975e-06
-7.44952e-07
-2.81136e-06
-9.39541e-07
-2.64547e-06
-1.11602e-06
-2.45492e-06
-1.27002e-06
-2.24317e-06
-1.39729e-06
-2.01431e-06
-1.49386e-06
-1.77302e-06
-1.55612e-06
-1.52454e-06
-1.58101e-06
-1.27462e-06
-1.5662e-06
-1.02943e-06
-1.5103e-06
-7.95473e-07
-1.41304e-06
-5.79421e-07
-1.27547e-06
-3.88032e-07
-1.10016e-06
-2.28001e-07
-8.91316e-07
-1.05855e-07
-6.54877e-07
-2.78674e-08
-3.98516e-07
-1.32091e-07
-3.16699e-08
1.7142e-07
-1.18769e-07
5.00753e-07
-2.53372e-07
8.05599e-07
-4.27626e-07
1.07778e-06
-6.33833e-07
1.31151e-06
-8.64518e-07
1.50273e-06
-1.1125e-06
1.64905e-06
-1.37095e-06
1.74951e-06
-1.63346e-06
1.80438e-06
-1.89406e-06
1.81493e-06
-2.14727e-06
1.78324e-06
-2.38814e-06
1.71201e-06
-2.61219e-06
1.6044e-06
-2.81548e-06
1.46391e-06
-2.99457e-06
1.29428e-06
-3.14651e-06
1.09943e-06
-3.26884e-06
8.83403e-07
-3.35958e-06
6.50359e-07
-3.41719e-06
4.04557e-07
-3.44064e-06
1.50361e-07
-3.42935e-06
-1.07747e-07
-3.38325e-06
-3.65158e-07
-3.30278e-06
-6.17135e-07
-3.18892e-06
-8.58815e-07
-3.04323e-06
-1.08523e-06
-2.86788e-06
-1.29137e-06
-2.66569e-06
-1.47221e-06
-2.44014e-06
-1.62284e-06
-2.19542e-06
-1.73859e-06
-1.93637e-06
-1.81516e-06
-1.66853e-06
-1.84885e-06
-1.39804e-06
-1.83669e-06
-1.13157e-06
-1.77676e-06
-8.76275e-07
-1.66834e-06
-6.39588e-07
-1.51216e-06
-4.29139e-07
-1.31061e-06
-2.52576e-07
-1.06788e-06
-1.17422e-07
-7.90031e-07
-3.09405e-08
-4.84997e-07
-1.63032e-07
-3.45911e-08
2.06011e-07
-1.29598e-07
5.95759e-07
-2.76147e-07
9.52148e-07
-4.65424e-07
1.26706e-06
-6.88809e-07
1.53489e-06
-9.3799e-07
1.75191e-06
-1.20505e-06
1.91611e-06
-1.48254e-06
2.027e-06
-1.76356e-06
2.0854e-06
-2.04177e-06
2.09313e-06
-2.31141e-06
2.05288e-06
-2.56732e-06
1.96792e-06
-2.80495e-06
1.84202e-06
-3.02027e-06
1.67923e-06
-3.20984e-06
1.48385e-06
-3.3707e-06
1.26029e-06
-3.50041e-06
1.01311e-06
-3.59698e-06
7.46928e-07
-3.65888e-06
4.66457e-07
-3.68503e-06
1.76513e-07
-3.67481e-06
-1.17966e-07
-3.62807e-06
-4.11905e-07
-3.54513e-06
-7.0007e-07
-3.42688e-06
-9.77068e-07
-3.27475e-06
-1.23736e-06
-3.09082e-06
-1.4753e-06
-2.87781e-06
-1.68521e-06
-2.6392e-06
-1.86145e-06
-2.37921e-06
-1.99859e-06
-2.10282e-06
-2.09155e-06
-1.81582e-06
-2.13585e-06
-1.52473e-06
-2.12778e-06
-1.23677e-06
-2.06472e-06
-9.59738e-07
-1.94537e-06
-7.01898e-07
-1.77e-06
-4.71807e-07
-1.5407e-06
-2.78136e-07
-1.26155e-06
-1.29478e-07
-9.3869e-07
-3.41528e-08
-5.80322e-07
-1.97184e-07
-3.75774e-08
2.43589e-07
-1.4063e-07
6.98812e-07
-2.99291e-07
1.11081e-06
-5.03737e-07
1.47151e-06
-7.44388e-07
1.77554e-06
-1.01205e-06
2.01958e-06
-1.29806e-06
2.20211e-06
-1.59432e-06
2.32327e-06
-1.89345e-06
2.38452e-06
-2.18873e-06
2.38841e-06
-2.47415e-06
2.3383e-06
-2.74442e-06
2.23819e-06
-2.99489e-06
2.09249e-06
-3.22154e-06
1.90589e-06
-3.42094e-06
1.68325e-06
-3.59019e-06
1.42955e-06
-3.7269e-06
1.14981e-06
-3.8291e-06
8.49132e-07
-3.89529e-06
5.32647e-07
-3.92437e-06
2.05593e-07
-3.91566e-06
-1.26677e-07
-3.86891e-06
-4.58654e-07
-3.78434e-06
-7.84644e-07
-3.66266e-06
-1.09875e-06
-3.50515e-06
-1.39487e-06
-3.31372e-06
-1.66674e-06
-3.09096e-06
-1.90796e-06
-2.84026e-06
-2.11215e-06
-2.5658e-06
-2.27304e-06
-2.27269e-06
-2.38467e-06
-1.96689e-06
-2.44164e-06
-1.65532e-06
-2.43936e-06
-1.3457e-06
-2.37435e-06
-1.04653e-06
-2.24453e-06
-7.66956e-07
-2.04958e-06
-5.16525e-07
-1.79113e-06
-3.05022e-07
-1.47305e-06
-1.42207e-07
-1.1015e-06
-3.75608e-08
-6.84968e-07
-2.34745e-07
-4.06607e-08
2.84249e-07
-1.51971e-07
8.10123e-07
-3.22992e-07
1.28183e-06
-5.42823e-07
1.69134e-06
-8.00862e-07
2.03358e-06
-1.08699e-06
2.30571e-06
-1.39174e-06
2.50686e-06
-1.7064e-06
2.63793e-06
-2.02306e-06
2.70118e-06
-2.33466e-06
2.70001e-06
-2.63499e-06
2.63864e-06
-2.91865e-06
2.52184e-06
-3.18096e-06
2.3548e-06
-3.41796e-06
2.14289e-06
-3.62631e-06
1.8916e-06
-3.8032e-06
1.60644e-06
-3.94632e-06
1.29294e-06
-4.05382e-06
9.56629e-07
-4.12421e-06
6.0304e-07
-4.1564e-06
2.37783e-07
-4.14966e-06
-1.33421e-07
-4.10363e-06
-5.04683e-07
-4.01838e-06
-8.69897e-07
-3.89443e-06
-1.2227e-06
-3.73284e-06
-1.55646e-06
-3.53528e-06
-1.86429e-06
-3.30415e-06
-2.13909e-06
-3.04265e-06
-2.37366e-06
-2.75487e-06
-2.56081e-06
-2.44593e-06
-2.69361e-06
-2.12196e-06
-2.7656e-06
-1.79019e-06
-2.77113e-06
-1.45888e-06
-2.70566e-06
-1.13723e-06
-2.56618e-06
-8.35307e-07
-2.35151e-06
-5.63746e-07
-2.06269e-06
-3.33553e-07
-1.70324e-06
-1.55782e-07
-1.27928e-06
-4.12181e-08
-7.99532e-07
-2.75963e-07
-4.38716e-08
3.28121e-07
-1.63718e-07
9.29969e-07
-3.47426e-07
1.46554e-06
-5.82919e-07
1.92683e-06
-8.58486e-07
2.30915e-06
-1.16302e-06
2.61024e-06
-1.48622e-06
2.83006e-06
-1.8187e-06
2.97041e-06
-2.15208e-06
3.03456e-06
-2.47899e-06
3.02691e-06
-2.79303e-06
2.95268e-06
-3.08876e-06
2.81757e-06
-3.36156e-06
2.6276e-06
-3.60759e-06
2.38892e-06
-3.82366e-06
2.10766e-06
-4.00713e-06
1.78991e-06
-4.15586e-06
1.44167e-06
-4.26811e-06
1.06888e-06
-4.34248e-06
6.7741e-07
-4.37789e-06
2.732e-07
-4.37358e-06
-1.37732e-07
-4.32908e-06
-5.49187e-07
-4.24426e-06
-9.54711e-07
-4.11943e-06
-1.34754e-06
-3.95535e-06
-1.72054e-06
-3.75339e-06
-2.06625e-06
-3.51565e-06
-2.37684e-06
-3.24505e-06
-2.64426e-06
-2.94551e-06
-2.86035e-06
-2.62205e-06
-3.01708e-06
-2.28088e-06
-3.10677e-06
-1.9295e-06
-3.12251e-06
-1.57665e-06
-3.05851e-06
-1.23229e-06
-2.91054e-06
-9.07425e-07
-2.67637e-06
-6.13886e-07
-2.35623e-06
-3.64031e-07
-1.9531e-06
-1.70371e-07
-1.47294e-06
-4.51768e-08
-9.24726e-07
-3.2114e-07
-4.72417e-08
3.75363e-07
-1.75974e-07
1.0587e-06
-3.72772e-07
1.66234e-06
-6.24254e-07
2.17831e-06
-9.17487e-07
2.60238e-06
-1.2403e-06
2.93305e-06
-1.58149e-06
3.17126e-06
-1.93101e-06
3.31992e-06
-2.27999e-06
3.38354e-06
-2.62079e-06
3.36772e-06
-2.94693e-06
3.27881e-06
-3.25297e-06
3.12362e-06
-3.53446e-06
2.90909e-06
-3.78775e-06
2.64221e-06
-4.0099e-06
2.32981e-06
-4.19853e-06
1.97854e-06
-4.35172e-06
1.59487e-06
-4.46792e-06
1.18508e-06
-4.54586e-06
7.55353e-07
-4.58453e-06
3.11861e-07
-4.5831e-06
-1.39159e-07
-4.541e-06
-5.91283e-07
-4.45792e-06
-1.0378e-06
-4.33384e-06
-1.47161e-06
-4.16921e-06
-1.88518e-06
-3.96499e-06
-2.27046e-06
-3.72288e-06
-2.61895e-06
-3.4454e-06
-2.92173e-06
-3.13617e-06
-3.16958e-06
-2.8e-06
-3.35325e-06
-2.44307e-06
-3.4637e-06
-2.07305e-06
-3.49253e-06
-1.69914e-06
-3.43242e-06
-1.33202e-06
-3.27766e-06
-9.83705e-07
-3.02469e-06
-6.67326e-07
-2.67261e-06
-3.96748e-07
-2.22368e-06
-1.86141e-07
-1.68354e-06
-4.94897e-08
-1.06138e-06
-3.7063e-07
-5.08067e-08
4.26169e-07
-1.88852e-07
1.19675e-06
-3.99224e-07
1.87271e-06
-6.67066e-07
2.44616e-06
-9.78083e-07
2.9134e-06
-1.31892e-06
3.27389e-06
-1.67744e-06
3.52977e-06
-2.04288e-06
3.68537e-06
-2.40595e-06
3.74661e-06
-2.75878e-06
3.72055e-06
-3.09487e-06
3.6149e-06
-3.40893e-06
3.43768e-06
-3.69675e-06
3.19691e-06
-3.955e-06
2.90046e-06
-4.18108e-06
2.5559e-06
-4.37299e-06
2.17044e-06
-4.52911e-06
1.75098e-06
-4.64814e-06
1.30411e-06
-4.72902e-06
8.3623e-07
-4.77081e-06
3.53646e-07
-4.77268e-06
-1.37285e-07
-4.73394e-06
-6.3002e-07
-4.65405e-06
-1.1177e-06
-4.53266e-06
-1.593e-06
-4.3698e-06
-2.04804e-06
-4.16594e-06
-2.47431e-06
-3.92225e-06
-2.86265e-06
-3.64074e-06
-3.20324e-06
-3.32454e-06
-3.48578e-06
-2.97811e-06
-3.69968e-06
-2.60745e-06
-3.83435e-06
-2.2203e-06
-3.87968e-06
-1.82622e-06
-3.82651e-06
-1.43658e-06
-3.6673e-06
-1.06447e-06
-3.3968e-06
-7.24417e-07
-3.01266e-06
-4.3199e-07
-2.51611e-06
-2.03262e-07
-1.91227e-06
-5.42121e-08
-1.21043e-06
-4.24842e-07
-5.46102e-08
4.8078e-07
-2.02488e-07
1.34462e-06
-4.27012e-07
2.09723e-06
-7.11631e-07
2.73078e-06
-1.0405e-06
3.24227e-06
-1.39896e-06
3.63235e-06
-1.77386e-06
3.90467e-06
-2.15372e-06
4.06523e-06
-2.52886e-06
4.12174e-06
-2.89126e-06
4.08296e-06
-3.23453e-06
3.95817e-06
-3.55363e-06
3.75678e-06
-3.84474e-06
3.48802e-06
-4.105e-06
3.16072e-06
-4.33228e-06
2.78318e-06
-4.52504e-06
2.3632e-06
-4.68208e-06
1.90802e-06
-4.80246e-06
1.42449e-06
-4.88534e-06
9.19118e-07
-4.92995e-06
3.98251e-07
-4.93547e-06
-1.31762e-07
-4.9011e-06
-6.64394e-07
-4.82603e-06
-1.19276e-06
-4.70957e-06
-1.70946e-06
-4.55122e-06
-2.20638e-06
-4.35089e-06
-2.67465e-06
-4.10906e-06
-3.10448e-06
-3.82707e-06
-3.48523e-06
-3.5074e-06
-3.80546e-06
-3.15394e-06
-4.05313e-06
-2.77236e-06
-4.21594e-06
-2.37026e-06
-4.28177e-06
-1.95745e-06
-4.23932e-06
-1.54595e-06
-4.0788e-06
-1.14994e-06
-3.7928e-06
-7.85484e-07
-3.37712e-06
-4.70049e-07
-2.83154e-06
-2.21915e-07
-2.1604e-06
-5.94048e-08
-1.37294e-06
-4.84247e-07
-5.87086e-08
5.39488e-07
-2.17058e-07
1.50297e-06
-4.56426e-07
2.3366e-06
-7.58285e-07
3.03264e-06
-1.10502e-06
3.589e-06
-1.48048e-06
4.00782e-06
-1.87043e-06
4.29462e-06
-2.2627e-06
4.4575e-06
-2.64725e-06
4.50629e-06
-3.01605e-06
4.45176e-06
-3.36294e-06
4.30505e-06
-3.68332e-06
4.07716e-06
-3.97391e-06
3.77861e-06
-4.23246e-06
3.41927e-06
-4.4575e-06
3.00821e-06
-4.64804e-06
2.55374e-06
-4.80346e-06
2.06344e-06
-4.92323e-06
1.54427e-06
-5.00686e-06
1.00275e-06
-5.05376e-06
4.45147e-07
-5.06317e-06
-1.22347e-07
-5.03419e-06
-6.93375e-07
-4.96576e-06
-1.26119e-06
-4.85676e-06
-1.81846e-06
-4.70614e-06
-2.35701e-06
-4.51309e-06
-2.8677e-06
-4.27729e-06
-3.34028e-06
-3.99921e-06
-3.7633e-06
-3.68047e-06
-4.1242e-06
-3.32419e-06
-4.40942e-06
-2.9354e-06
-4.60474e-06
-2.52139e-06
-4.69578e-06
-2.09204e-06
-4.66867e-06
-1.65991e-06
-4.51093e-06
-1.24027e-06
-4.21244e-06
-8.50836e-07
-3.76656e-06
-5.11235e-07
-3.17114e-06
-2.42302e-07
-2.42934e-06
-6.51379e-08
-1.5501e-06
-5.49384e-07
-6.31775e-08
6.02666e-07
-2.32792e-07
1.67259e-06
-4.87843e-07
2.59165e-06
-8.07461e-07
3.35225e-06
-1.17195e-06
3.95349e-06
-1.56352e-06
4.39939e-06
-1.96673e-06
4.69783e-06
-2.36874e-06
4.85951e-06
-2.75925e-06
4.8968e-06
-3.13039e-06
4.8229e-06
-3.47641e-06
4.65107e-06
-3.79336e-06
4.3941e-06
-4.07869e-06
4.06395e-06
-4.33097e-06
3.67155e-06
-4.54951e-06
3.22675e-06
-4.73408e-06
2.73832e-06
-4.88471e-06
2.21406e-06
-5.00143e-06
1.66098e-06
-5.08414e-06
1.08547e-06
-5.13253e-06
4.93533e-07
-5.14594e-06
-1.08941e-07
-5.12337e-06
-7.15938e-07
-5.06353e-06
-1.32104e-06
-4.96483e-06
-1.91715e-06
-4.8256e-06
-2.49624e-06
-4.64422e-06
-3.04908e-06
-4.41941e-06
-3.56508e-06
-4.15059e-06
-4.03212e-06
-3.83825e-06
-4.43654e-06
-3.48445e-06
-4.76322e-06
-3.09331e-06
-4.99587e-06
-2.67153e-06
-5.11756e-06
-2.22877e-06
-5.11143e-06
-1.77798e-06
-4.96171e-06
-1.3355e-06
-4.65492e-06
-9.20775e-07
-4.18128e-06
-5.55891e-07
-3.53602e-06
-2.64659e-07
-2.72057e-06
-7.14953e-08
-1.74327e-06
-6.2088e-07
-6.81201e-08
6.70786e-07
-2.50004e-07
1.85447e-06
-5.21768e-07
2.86341e-06
-8.59724e-07
3.69021e-06
-1.24173e-06
4.3355e-06
-1.64811e-06
4.80577e-06
-2.06217e-06
5.11189e-06
-2.47042e-06
5.26775e-06
-2.86249e-06
5.28886e-06
-3.23084e-06
5.19126e-06
-3.5704e-06
4.99064e-06
-3.8781e-06
4.7018e-06
-4.15239e-06
4.33824e-06
-4.39284e-06
3.912e-06
-4.59975e-06
3.43366e-06
-4.77381e-06
2.91238e-06
-4.91582e-06
2.35607e-06
-5.02647e-06
1.77163e-06
-5.10617e-06
1.16517e-06
-5.15493e-06
5.42288e-07
-5.17224e-06
-9.1631e-08
-5.15707e-06
-7.31107e-07
-5.10786e-06
-1.37025e-06
-5.02258e-06
-2.00243e-06
-4.89887e-06
-2.61995e-06
-4.7342e-06
-3.21375e-06
-4.5262e-06
-3.77308e-06
-4.273e-06
-4.28532e-06
-3.97372e-06
-4.73582e-06
-3.62904e-06
-5.1079e-06
-3.24179e-06
-5.38311e-06
-2.81769e-06
-5.54167e-06
-2.36586e-06
-5.56326e-06
-1.89939e-06
-5.42818e-06
-1.43553e-06
-5.11878e-06
-9.95602e-07
-4.62121e-06
-6.04414e-07
-3.92721e-06
-2.89276e-07
-3.03571e-06
-7.85823e-08
-1.95396e-06
-6.99462e-07
-7.368e-08
7.44466e-07
-2.69121e-07
2.04991e-06
-5.5888e-07
3.15317e-06
-9.15821e-07
4.04715e-06
-1.3149e-06
4.73458e-06
-1.73427e-06
5.22514e-06
-2.15595e-06
5.53357e-06
-2.5659e-06
5.6777e-06
-2.95389e-06
5.67685e-06
-3.31303e-06
5.5504e-06
-3.63925e-06
5.31685e-06
-3.93063e-06
4.99318e-06
-4.18691e-06
4.59452e-06
-4.40892e-06
4.13401e-06
-4.59813e-06
3.62288e-06
-4.7563e-06
3.07055e-06
-4.88516e-06
2.48493e-06
-4.98615e-06
1.87262e-06
-5.06027e-06
1.23929e-06
-5.10792e-06
5.89939e-07
-5.12881e-06
-7.0738e-08
-5.12192e-06
-7.38002e-07
-5.08545e-06
-1.40671e-06
-5.01693e-06
-2.07095e-06
-4.91328e-06
-2.72361e-06
-4.771e-06
-3.35603e-06
-4.58647e-06
-3.95761e-06
-4.35637e-06
-4.51543e-06
-4.07814e-06
-5.01405e-06
-3.75071e-06
-5.43534e-06
-3.37521e-06
-5.75861e-06
-2.95586e-06
-5.96102e-06
-2.50083e-06
-6.0183e-06
-2.02293e-06
-5.90608e-06
-1.54014e-06
-5.60157e-06
-1.07563e-06
-5.08571e-06
-6.57286e-07
-4.34556e-06
-3.16518e-07
-3.37648e-06
-8.65351e-08
-2.18394e-06
-7.85997e-07
-8.00573e-08
8.24523e-07
-2.9073e-07
2.26059e-06
-6.00088e-07
3.46253e-06
-9.76719e-07
4.42378e-06
-1.39208e-06
5.14994e-06
-1.82191e-06
5.65498e-06
-2.24689e-06
5.95854e-06
-2.65266e-06
6.08347e-06
-3.02946e-06
6.05365e-06
-3.37144e-06
5.89238e-06
-3.67589e-06
5.6213e-06
-3.94248e-06
5.25977e-06
-4.17251e-06
4.82455e-06
-4.36832e-06
4.32983e-06
-4.53279e-06
3.78734e-06
-4.66888e-06
3.20664e-06
-4.77936e-06
2.5954e-06
-4.86652e-06
1.95978e-06
-4.93201e-06
1.30479e-06
-4.97672e-06
6.34642e-07
-5.00061e-06
-4.68498e-08
-5.00271e-06
-7.35903e-07
-4.98106e-06
-1.42835e-06
-4.93277e-06
-2.11924e-06
-4.85405e-06
-2.80233e-06
-4.74039e-06
-3.46969e-06
-4.58686e-06
-4.11114e-06
-4.38845e-06
-4.71384e-06
-4.14068e-06
-5.26182e-06
-3.84031e-06
-5.7357e-06
-3.48628e-06
-6.11265e-06
-3.08075e-06
-6.36654e-06
-2.63028e-06
-6.46877e-06
-2.14688e-06
-6.38949e-06
-1.64886e-06
-6.09959e-06
-1.16119e-06
-5.57338e-06
-7.15108e-07
-4.79164e-06
-3.4686e-07
-3.74472e-06
-9.55361e-08
-2.43527e-06
-8.81533e-07
-8.75334e-08
9.12057e-07
-3.15635e-07
2.48869e-06
-6.46606e-07
3.7935e-06
-1.04365e-06
4.82082e-06
-1.47402e-06
5.58031e-06
-1.91074e-06
6.0917e-06
-2.33326e-06
6.38106e-06
-2.72724e-06
6.47746e-06
-3.08389e-06
6.4103e-06
-3.3989e-06
6.2074e-06
-3.67147e-06
5.89387e-06
-3.90323e-06
5.49153e-06
-4.09743e-06
5.01874e-06
-4.25817e-06
4.49058e-06
-4.38991e-06
3.91908e-06
-4.49695e-06
3.31368e-06
-4.58318e-06
2.68163e-06
-4.65182e-06
2.02842e-06
-4.70522e-06
1.35819e-06
-4.74477e-06
6.74195e-07
-4.77078e-06
-2.08481e-08
-4.78237e-06
-7.24305e-07
-4.77752e-06
-1.43321e-06
-4.75294e-06
-2.14381e-06
-4.70422e-06
-2.85106e-06
-4.62585e-06
-3.54805e-06
-4.51154e-06
-4.22546e-06
-4.35448e-06
-4.87089e-06
-4.14802e-06
-5.46828e-06
-3.88636e-06
-5.99737e-06
-3.56566e-06
-6.43334e-06
-3.18535e-06
-6.74686e-06
-2.74956e-06
-6.90455e-06
-2.26874e-06
-6.87031e-06
-1.76092e-06
-6.60741e-06
-1.25261e-06
-6.08169e-06
-7.78648e-07
-5.2656e-06
-3.80945e-07
-4.14243e-06
-1.05836e-07
-2.71037e-06
-9.8737e-07
-9.65079e-08
1.00856e-06
-3.44947e-07
2.73713e-06
-7.00041e-07
4.14859e-06
-1.11813e-06
5.23891e-06
-1.56142e-06
6.0236e-06
-2e-06
6.53028e-06
-2.41234e-06
6.79341e-06
-2.78473e-06
6.84984e-06
-3.10999e-06
6.73555e-06
-3.3861e-06
6.48351e-06
-3.61473e-06
6.1225e-06
-3.80001e-06
5.6768e-06
-3.94745e-06
5.16619e-06
-4.06319e-06
4.60632e-06
-4.15339e-06
4.00927e-06
-4.22379e-06
3.38408e-06
-4.27943e-06
2.73728e-06
-4.32446e-06
2.07345e-06
-4.36196e-06
1.39569e-06
-4.39384e-06
7.06077e-07
-4.42077e-06
6.08649e-09
-4.4421e-06
-7.02982e-07
-4.45575e-06
-1.41956e-06
-4.45822e-06
-2.14134e-06
-4.44455e-06
-2.86473e-06
-4.40836e-06
-3.58424e-06
-4.342e-06
-4.29181e-06
-4.23688e-06
-4.97601e-06
-4.08395e-06
-5.62122e-06
-3.8745e-06
-6.20681e-06
-3.60136e-06
-6.70648e-06
-3.26037e-06
-7.08785e-06
-2.85229e-06
-7.31263e-06
-2.3849e-06
-7.33769e-06
-1.87506e-06
-7.11725e-06
-1.3502e-06
-6.60655e-06
-8.48894e-07
-5.76691e-06
-4.19648e-07
-4.57167e-06
-1.1779e-07
-3.01223e-06
-1.10516e-06
-1.07555e-07
1.11612e-06
-3.802e-07
3.00977e-06
-7.6249e-07
4.53088e-06
-1.20195e-06
5.67837e-06
-1.65476e-06
6.47641e-06
-2.08803e-06
6.96355e-06
-2.47984e-06
7.18522e-06
-2.81796e-06
7.18796e-06
-3.09786e-06
7.01546e-06
-3.32067e-06
6.70632e-06
-3.49127e-06
6.29311e-06
-3.61679e-06
5.80232e-06
-3.70535e-06
5.25475e-06
-3.76531e-06
4.66627e-06
-3.8046e-06
4.04857e-06
-3.8304e-06
3.40988e-06
-3.84887e-06
2.75575e-06
-3.86502e-06
2.0896e-06
-3.88262e-06
1.41329e-06
-3.9041e-06
7.27556e-07
-3.93051e-06
3.25004e-08
-3.96145e-06
-6.72042e-07
-3.99496e-06
-1.38605e-06
-4.02745e-06
-2.10885e-06
-4.0536e-06
-2.83858e-06
-4.06633e-06
-3.5715e-06
-4.05686e-06
-4.30129e-06
-4.01484e-06
-5.01803e-06
-3.92879e-06
-5.70726e-06
-3.78687e-06
-6.34874e-06
-3.57797e-06
-6.91538e-06
-3.29351e-06
-7.37231e-06
-2.92966e-06
-7.67648e-06
-2.49014e-06
-7.77722e-06
-1.98917e-06
-7.61822e-06
-1.45414e-06
-7.14157e-06
-9.2712e-07
-6.29393e-06
-4.64189e-07
-5.03461e-06
-1.31911e-07
-3.34451e-06
-1.23707e-06
-1.21517e-07
1.23764e-06
-4.23523e-07
3.31178e-06
-8.36653e-07
4.94401e-06
-1.29704e-06
6.13876e-06
-1.75386e-06
6.93322e-06
-2.17154e-06
7.38122e-06
-2.52884e-06
7.54253e-06
-2.81642e-06
7.47554e-06
-3.03372e-06
7.23276e-06
-3.18613e-06
6.85872e-06
-3.28254e-06
6.38952e-06
-3.33357e-06
5.85334e-06
-3.35024e-06
5.27143e-06
-3.34318e-06
4.65921e-06
-3.32205e-06
4.02744e-06
-3.29536e-06
3.38318e-06
-3.27022e-06
2.73061e-06
-3.25238e-06
2.07176e-06
-3.24615e-06
1.40706e-06
-3.25445e-06
7.35847e-07
-3.27868e-06
5.6733e-08
-3.31875e-06
-6.31966e-07
-3.37295e-06
-1.33186e-06
-3.43778e-06
-2.04402e-06
-3.50785e-06
-2.76851e-06
-3.5757e-06
-3.50366e-06
-3.63168e-06
-4.24531e-06
-3.66399e-06
-4.98572e-06
-3.65889e-06
-5.71236e-06
-3.60127e-06
-6.40636e-06
-3.47573e-06
-7.04092e-06
-3.26837e-06
-7.57967e-06
-2.96941e-06
-7.97544e-06
-2.57667e-06
-8.16996e-06
-2.09976e-06
-8.09514e-06
-1.56426e-06
-7.67706e-06
-1.01493e-06
-6.84326e-06
-5.16286e-07
-5.53325e-06
-1.48961e-07
-3.71183e-06
-1.38603e-06
-1.39653e-07
1.37729e-06
-4.77884e-07
3.65001e-06
-9.25897e-07
5.39203e-06
-1.40514e-06
6.61801e-06
-1.85701e-06
7.3851e-06
-2.24426e-06
7.76847e-06
-2.54825e-06
7.84651e-06
-2.76451e-06
7.6918e-06
-2.89823e-06
7.36647e-06
-2.96033e-06
6.92082e-06
-2.96454e-06
6.39374e-06
-2.92538e-06
5.81418e-06
-2.85684e-06
5.20289e-06
-2.7717e-06
4.57407e-06
-2.68117e-06
3.93691e-06
-2.59474e-06
3.29675e-06
-2.52024e-06
2.65611e-06
-2.46388e-06
2.0154e-06
-2.43035e-06
1.37354e-06
-2.42286e-06
7.28356e-07
-2.44316e-06
7.70326e-08
-2.4915e-06
-5.83624e-07
-2.56653e-06
-1.25683e-06
-2.66511e-06
-1.94545e-06
-2.78209e-06
-2.65153e-06
-2.91004e-06
-3.3757e-06
-3.03899e-06
-4.11636e-06
-3.15616e-06
-4.86855e-06
-3.24598e-06
-5.62254e-06
-3.2903e-06
-6.36204e-06
-3.26928e-06
-7.06194e-06
-3.16299e-06
-7.68595e-06
-2.95428e-06
-8.18416e-06
-2.63287e-06
-8.49136e-06
-2.20097e-06
-8.52704e-06
-1.67956e-06
-8.19847e-06
-1.11426e-06
-7.40857e-06
-5.78373e-07
-6.06914e-06
-1.70108e-07
-4.1201e-06
-1.55614e-06
-1.63903e-07
1.54119e-06
-5.47433e-07
4.03354e-06
-1.0342e-06
5.8788e-06
-1.527e-06
7.11081e-06
-1.95942e-06
7.81752e-06
-2.29485e-06
8.1039e-06
-2.52028e-06
8.07195e-06
-2.63904e-06
7.81055e-06