/*--------------------------------*- C++ -*----------------------------------*\
| =========                 |                                                 |
| \\      /  F ield         | OpenFOAM: The Open Source CFD Toolbox           |
|  \\    /   O peration     | Version:  2.4.0                                 |
|   \\  /    A nd           | Web:      www.OpenFOAM.org                      |
|    \\/     M anipulation  |                                                 |
\*---------------------------------------------------------------------------*/
FoamFile
{
    version     2.0;
    format      ascii;
    class       volVectorField;
    location    "0.2";
    object      U;
}
// * * * * * * * * * * * * * * * * * * * * * * * * * * * * * * * * * * * * * //

dimensions      [0 1 -1 0 0 0 0];

internalField   nonuniform List<vector> 
1935
(
(2.24848e-36 2.10802e-41 0)
(1.15076e-37 -9.12622e-38 0)
(1.44191e-38 -5.58559e-39 0)
(1.62509e-39 -1.92392e-38 0)
(-5.54255e-39 -2.87367e-37 0)
(-2.79607e-36 -7.48648e-36 0)
(-1.94043e-34 -8.18414e-35 0)
(-9.92111e-33 -2.07061e-33 0)
(-3.35756e-31 -4.79954e-33 0)
(-9.78871e-33 -1.27941e-31 0)
(3.1719e-33 -7.37504e-31 0)
(-2.04239e-34 -2.52531e-29 0)
(-6.82786e-33 5.04677e-31 0)
(-6.8326e-35 2.57747e-29 0)
(3.43661e-33 7.57084e-31 0)
(1.35435e-34 1.32766e-31 0)
(-1.07416e-36 9.90025e-33 0)
(-1.37724e-34 1.43849e-31 0)
(-3.71473e-33 6.93522e-31 0)
(4.34705e-33 2.81288e-29 0)
(1.18261e-32 -3.11866e-29 0)
(-4.02728e-33 -6.02112e-29 0)
(-1.20465e-32 -1.15771e-30 0)
(4.28521e-33 2.97074e-29 0)
(1.24222e-32 -3.30548e-29 0)
(-8.4896e-33 -6.33769e-29 0)
(-8.55439e-33 3.07187e-29 0)
(3.6865e-33 1.44581e-31 0)
(-1.39143e-32 4.39048e-31 0)
(-4.77104e-31 -1.47721e-30 0)
(-1.42972e-32 -3.42346e-29 0)
(-4.83688e-33 -1.00617e-30 0)
(-1.84255e-34 -1.754e-31 0)
(-1.68124e-35 -6.53541e-33 0)
(3.15593e-38 -1.2698e-33 0)
(1.81383e-35 -6.6041e-33 0)
(1.82268e-34 -1.89006e-31 0)
(4.89666e-33 -9.15456e-31 0)
(-5.68568e-33 -3.70752e-29 0)
(-1.55612e-32 4.07808e-29 0)
(5.07077e-33 7.9221e-29 0)
(1.06057e-32 2.49235e-30 0)
(4.04233e-34 4.23423e-31 0)
(3.20801e-35 -2.24193e-41 0)
(6.34429e-34 -2.38838e-41 0)
(6.39407e-33 -1.87869e-42 0)
(1.26584e-31 -3.50741e-43 0)
(1.63661e-36 -1.98284e-36 0)
(3.00971e-35 -2.71585e-35 0)
(3.02092e-34 -5.32937e-34 0)
(5.2282e-33 -5.12119e-33 0)
(1.92131e-37 -1.00996e-37 0)
(3.40176e-36 -1.3851e-36 0)
(2.88985e-35 -2.5246e-35 0)
(4.50836e-34 -2.40238e-34 0)
(9.72435e-39 4.39976e-39 0)
(1.44901e-37 -1.45224e-37 0)
(1.20006e-36 -2.88671e-36 0)
(1.70054e-35 -2.42109e-35 0)
(-2.2488e-39 2.54163e-37 0)
(-1.16094e-38 2.66243e-37 0)
(5.89601e-38 -1.03655e-37 0)
(1.11209e-36 -1.01516e-36 0)
(-2.72793e-36 6.61028e-36 0)
(-5.15204e-37 7.06544e-36 0)
(-3.25735e-37 4.74864e-37 0)
(1.77758e-38 -1.20225e-38 0)
(-1.91536e-34 6.7025e-35 0)
(-2.06728e-35 7.20076e-35 0)
(-8.7496e-36 4.85082e-36 0)
(-5.74654e-37 4.95783e-37 0)
(-9.84878e-33 1.68353e-33 0)
(-6.29539e-34 1.79278e-33 0)
(-1.02735e-34 1.03536e-34 0)
(-6.12499e-36 1.05096e-35 0)
(-3.33952e-31 -3.03266e-34 0)
(-1.53312e-32 -3.12724e-35 0)
(-2.48355e-33 -1.69439e-36 0)
(-1.29672e-34 -1.23959e-37 0)
(-4.70214e-33 -8.80109e-33 0)
(-2.96397e-34 -2.47954e-33 0)
(-6.69483e-35 -1.37516e-34 0)
(-4.16719e-36 -1.29568e-35 0)
(1.29573e-31 -4.05377e-32 0)
(7.12671e-33 -1.36523e-33 0)
(7.52608e-34 -3.42918e-35 0)
(3.80221e-35 -8.60829e-37 0)
(-7.81605e-33 -9.81106e-31 0)
(-4.82328e-34 -2.63879e-32 0)
(-5.20401e-35 -5.29237e-34 0)
(-2.7959e-36 -4.25537e-36 0)
(-2.63289e-31 1.9883e-32 0)
(-1.45141e-32 5.48811e-34 0)
(-1.54734e-33 1.14817e-35 0)
(-7.84991e-35 1.37366e-37 0)
(-2.67937e-33 1.00191e-30 0)
(-1.97831e-34 2.6969e-32 0)
(-2.14307e-35 5.41525e-34 0)
(-1.23306e-36 4.39592e-36 0)
(1.32492e-31 4.15415e-32 0)
(7.29974e-33 1.34622e-33 0)
(7.77625e-34 3.14018e-35 0)
(3.94302e-35 4.69708e-37 0)
(5.26559e-33 7.27032e-33 0)
(3.40842e-34 7.01661e-34 0)
(3.66359e-35 3.47255e-35 0)
(2.0046e-36 2.50098e-36 0)
(-4.33135e-35 6.25565e-34 0)
(-2.66854e-36 6.38285e-35 0)
(-3.25787e-37 3.44943e-36 0)
(-1.76079e-38 2.51103e-37 0)
(-5.32368e-33 7.82244e-33 0)
(-3.44421e-34 7.51364e-34 0)
(-3.63134e-35 3.69716e-35 0)
(-1.97877e-36 2.6585e-36 0)
(-1.43124e-31 3.80239e-32 0)
(-7.81845e-33 6.51386e-34 0)
(-8.31723e-34 -7.82873e-36 0)
(-4.19678e-35 -2.59547e-36 0)
(1.6773e-31 1.07639e-30 0)
(9.36362e-33 2.80869e-32 0)
(9.99e-34 5.33547e-34 0)
(5.10213e-35 1.36906e-36 0)
(4.55996e-31 -1.22857e-30 0)
(2.51316e-32 -3.39027e-32 0)
(2.67854e-33 -7.0906e-34 0)
(1.35861e-34 -8.50783e-36 0)
(-1.5526e-31 -2.35426e-30 0)
(-8.55574e-33 -6.36383e-32 0)
(-9.11319e-34 -1.28352e-33 0)
(-4.62117e-35 -1.07332e-35 0)
(-4.64422e-31 -6.35797e-32 0)
(-2.55802e-32 -3.22473e-33 0)
(-2.72491e-33 -1.21355e-34 0)
(-1.38147e-34 -6.78146e-36 0)
(1.65181e-31 1.13181e-30 0)
(9.10155e-33 2.83596e-32 0)
(9.68923e-34 4.8969e-34 0)
(4.91233e-35 -4.27222e-36 0)
(4.78887e-31 -1.3e-30 0)
(2.63227e-32 -3.53249e-32 0)
(2.80436e-33 -7.17292e-34 0)
(1.42027e-34 -6.35337e-36 0)
(-3.27316e-31 -2.46537e-30 0)
(-1.79818e-32 -6.69676e-32 0)
(-1.91667e-33 -1.36973e-33 0)
(-9.70578e-35 -1.38299e-35 0)
(-3.29736e-31 1.16382e-30 0)
(-1.82357e-32 3.07649e-32 0)
(-1.94413e-33 6.07033e-34 0)
(-9.87969e-35 4.44143e-36 0)
(1.52509e-31 1.58351e-32 0)
(8.26899e-33 -4.79207e-34 0)
(8.7138e-34 -5.22474e-35 0)
(4.36569e-35 -5.19596e-36 0)
(-1.75613e-33 1.87595e-32 0)
(-1.02081e-34 2.92588e-33 0)
(-6.26368e-35 1.52006e-34 0)
(-4.16338e-36 1.47361e-35 0)
(-3.01148e-31 -7.32556e-32 0)
(-1.21871e-32 -2.28254e-33 0)
(-2.51767e-33 -5.21208e-35 0)
(-1.33012e-34 -7.67473e-37 0)
(-1.65628e-32 -1.33591e-30 0)
(-1.03653e-33 -3.9112e-32 0)
(-1.61624e-34 -9.08605e-34 0)
(-9.50772e-36 -2.40842e-35 0)
(-1.76055e-31 -5.53636e-32 0)
(-9.72063e-33 -1.91958e-33 0)
(-1.04568e-33 -5.04781e-35 0)
(-5.32421e-35 -1.48326e-36 0)
(-7.0149e-33 -9.61437e-33 0)
(-4.5486e-34 -9.36997e-34 0)
(-4.93529e-35 -4.65613e-35 0)
(-2.71095e-36 -3.38464e-36 0)
(-6.85924e-34 -4.13579e-34 0)
(-4.45013e-35 -4.31041e-35 0)
(-5.55985e-36 -2.34567e-36 0)
(-3.12901e-37 -1.73155e-37 0)
(1.18944e-36 -7.98521e-35 0)
(8.23572e-38 -9.84864e-36 0)
(8.21086e-39 -5.53148e-37 0)
(4.51806e-40 -4.34637e-38 0)
(7.39595e-34 -4.17412e-34 0)
(4.77591e-35 -4.21632e-35 0)
(5.92891e-36 -2.27349e-36 0)
(3.32127e-37 -1.64716e-37 0)
(7.04775e-33 -1.02734e-32 0)
(4.5611e-34 -9.85784e-34 0)
(4.81372e-35 -4.84758e-35 0)
(2.62426e-36 -3.48404e-36 0)
(1.88664e-31 -5.01916e-32 0)
(1.03068e-32 -8.66721e-34 0)
(1.09645e-33 9.90291e-36 0)
(5.53278e-35 3.39046e-36 0)
(-2.19383e-31 -1.4189e-30 0)
(-1.22482e-32 -3.70294e-32 0)
(-1.3068e-33 -7.03554e-34 0)
(-6.67449e-35 -1.81675e-36 0)
(-6.00055e-31 1.60668e-30 0)
(-3.30787e-32 4.43693e-32 0)
(-3.52645e-33 9.2943e-34 0)
(-1.78902e-34 1.12967e-35 0)
(1.95466e-31 3.10052e-30 0)
(1.0699e-32 8.45588e-32 0)
(1.14007e-33 1.7357e-33 0)
(5.76155e-35 1.7772e-35 0)
(4.08987e-31 1.36804e-31 0)
(2.26157e-32 5.15692e-33 0)
(2.41073e-33 1.48983e-34 0)
(1.22493e-34 5.31683e-36 0)
(1.56612e-32 2.33653e-32 0)
(1.01772e-33 2.18274e-33 0)
(1.09367e-34 1.07094e-34 0)
(6.00427e-36 7.62696e-36 0)
(7.61114e-31 -1.78722e-42 0)
(2.03738e-29 -1.60642e-42 0)
(1.97319e-29 3.49009e-42 0)
(-1.97263e-29 3.47599e-42 0)
(-2.02546e-29 -1.70283e-42 0)
(5.13194e-33 -3.56498e-42 0)
(2.03743e-29 -1.7973e-42 0)
(2.04879e-29 1.69492e-42 0)
(7.61139e-31 1.78887e-42 0)
(1.19198e-31 9.40185e-44 0)
(5.13048e-33 1.04819e-44 0)
(4.65524e-34 4.80925e-46 0)
(-1.88062e-35 -8.48141e-47 0)
(-9.14885e-34 -3.67127e-45 0)
(-9.79425e-33 -1.05951e-43 0)
(-2.33285e-31 -2.47728e-42 0)
(-1.40352e-30 -5.95398e-41 0)
(-4.02193e-29 -5.88043e-40 0)
(-2.03738e-29 2.33315e-38 0)
(1.97314e-29 3.2494e-36 0)
(2.10166e-29 1.95851e-34 0)
(2.06059e-29 8.8692e-33 0)
(8.8502e-31 2.70629e-31 0)
(8.82505e-31 8.86923e-33 0)
(2.04982e-29 1.99077e-34 0)
(2.04934e-29 1.95851e-34 0)
(7.60428e-31 8.67338e-33 0)
(1.20476e-31 2.6176e-31 0)
(6.42556e-33 -2.6176e-31 0)
(2.05886e-34 -8.67333e-33 0)
(1.02223e-32 -1.8927e-34 0)
(2.38059e-31 1.97544e-34 0)
(1.52026e-30 9.09201e-33 0)
(4.08761e-29 2.77431e-31 0)
(4.04513e-29 9.28787e-33 0)
(-1.76863e-29 9.06995e-33 0)
(1.92082e-29 2.7063e-31 0)
(-7.50496e-31 8.67643e-33 0)
(-3.95775e-29 -8.48523e-33 0)
(-1.42326e-30 -2.61779e-31 0)
(3.13044e-32 -9.84405e-32 0)
(6.01874e-31 -9.00731e-32 0)
(5.75445e-31 1.93583e-31 0)
(-5.7518e-31 1.93161e-31 0)
(-5.96954e-31 -9.47036e-32 0)
(2.42477e-34 -1.97356e-31 0)
(6.01894e-31 -9.93008e-32 0)
(6.06549e-31 9.4265e-32 0)
(3.13462e-32 9.88788e-32 0)
(4.91748e-33 4.61496e-33 0)
(2.42402e-34 4.39873e-34 0)
(2.20053e-35 1.91379e-35 0)
(-9.5828e-37 3.77582e-36 0)
(-4.31869e-35 3.68503e-35 0)
(-4.62739e-34 8.60752e-34 0)
(-9.5935e-33 8.79128e-33 0)
(-5.77958e-32 1.9316e-31 0)
(-1.18197e-30 9.00696e-32 0)
(-6.01872e-31 -2.88727e-31 0)
(5.75418e-31 -2.0199e-31 0)
(6.28286e-31 -5.04256e-33 0)
(6.10163e-31 9.84146e-32 0)
(3.64849e-32 1.0377e-31 0)
(3.761e-32 -9.38505e-32 0)
(6.07087e-31 -9.42473e-32 0)
(6.06767e-31 9.47375e-32 0)
(3.01243e-32 9.92987e-32 0)
(6.22209e-33 1.32888e-32 0)
(1.54788e-33 -8.23523e-33 0)
(-1.17913e-33 -4.18678e-34 0)
(4.27098e-34 -8.88474e-34 0)
(9.75433e-33 -9.01545e-33 0)
(6.1251e-32 -1.88299e-31 0)
(1.2091e-30 9.17958e-32 0)
(1.19279e-30 2.89059e-31 0)
(-4.92401e-31 1.04551e-31 0)
(5.53902e-31 -6.79915e-32 0)
(-2.95512e-32 2.81204e-31 0)
(-1.15432e-30 4.11647e-33 0)
(-6.03453e-32 -1.84981e-31 0)
(1.03393e-33 -3.9594e-33 0)
(1.15599e-32 -3.5668e-33 0)
(1.09534e-32 7.76424e-33 0)
(-1.09277e-32 7.74442e-33 0)
(-1.11301e-32 -3.78417e-33 0)
(2.3098e-35 -7.94128e-33 0)
(1.15619e-32 -3.99993e-33 0)
(1.19657e-32 3.76345e-33 0)
(1.03539e-33 3.98006e-33 0)
(4.29214e-34 2.16672e-34 0)
(2.30887e-35 2.07799e-35 0)
(2.49895e-36 9.75853e-37 0)
(-1.11726e-37 1.9258e-37 0)
(-4.90296e-36 1.87858e-36 0)
(-4.3671e-35 4.05916e-35 0)
(-8.3545e-34 4.12626e-34 0)
(-1.64395e-33 7.74435e-33 0)
(-2.29165e-32 3.56652e-33 0)
(-1.15594e-32 -1.15692e-32 0)
(1.09507e-32 -8.15875e-33 0)
(1.21676e-32 -2.3178e-34 0)
(1.234e-32 4.00249e-33 0)
(1.4853e-33 5.18532e-33 0)
(1.52449e-33 -3.6995e-33 0)
(1.20145e-32 -3.7573e-33 0)
(1.1989e-32 3.79094e-33 0)
(9.85905e-34 4.03925e-33 0)
(4.84353e-34 1.55498e-33 0)
(7.83139e-35 -1.3176e-33 0)
(-4.48451e-35 -5.9084e-35 0)
(3.76485e-35 -4.65865e-35 0)
(7.96534e-34 -4.17653e-34 0)
(7.21361e-34 -7.51814e-33 0)
(2.3589e-32 1.92444e-33 0)
(2.50853e-32 1.15882e-32 0)
(-8.69121e-33 4.29676e-33 0)
(1.07777e-32 -1.55452e-33 0)
(-9.39499e-34 1.12561e-32 0)
(-2.2314e-32 1.62488e-34 0)
(-2.54869e-33 -8.28472e-33 0)
(2.58754e-35 -3.87903e-34 0)
(1.59965e-34 -3.49614e-34 0)
(1.50214e-34 7.6182e-34 0)
(-1.49143e-34 7.59547e-34 0)
(-1.43691e-34 -3.71302e-34 0)
(9.59855e-37 -7.78874e-34 0)
(1.60049e-34 -3.92793e-34 0)
(1.75238e-34 3.68926e-34 0)
(2.59825e-35 3.90515e-34 0)
(1.62453e-35 2.15968e-35 0)
(9.59431e-37 2.38434e-36 0)
(1.06842e-37 1.14859e-37 0)
(-5.03278e-39 2.40717e-38 0)
(-2.09414e-37 2.20566e-37 0)
(-1.81168e-36 4.65479e-36 0)
(-3.15361e-35 4.08171e-35 0)
(-3.58212e-35 7.59539e-34 0)
(-3.25335e-34 3.49591e-34 0)
(-1.59943e-34 -1.13551e-33 0)
(1.50077e-34 -8.0058e-34 0)
(1.69622e-34 -2.37144e-35 0)
(1.8638e-34 3.88628e-34 0)
(4.3085e-35 4.26134e-34 0)
(4.75394e-35 -3.66051e-34 0)
(1.77393e-34 -3.68615e-34 0)
(1.76097e-34 3.717e-34 0)
(2.12597e-35 3.9323e-34 0)
(2.13554e-35 7.36838e-35 0)
(6.07324e-36 -4.971e-35 0)
(-4.52826e-36 -2.68911e-36 0)
(1.38488e-36 -4.77773e-36 0)
(2.94413e-35 -3.71754e-35 0)
(-4.95292e-36 -7.13544e-34 0)
(3.37807e-34 7.11882e-34 0)
(4.12984e-34 1.16062e-33 0)
(-1.06505e-34 4.23334e-34 0)
(1.56835e-34 -2.34236e-34 0)
(-1.90933e-35 1.10215e-33 0)
(-3.13431e-34 2.06434e-35 0)
(-8.14221e-35 -7.3503e-34 0)
(1.10316e-36 -1.50283e-35 0)
(-3.67968e-37 -1.34274e-35 0)
(-4.13611e-37 2.94797e-35 0)
(4.85561e-37 2.93825e-35 0)
(1.43639e-36 -1.43377e-35 0)
(6.39859e-38 -3.01919e-35 0)
(-3.62312e-37 -1.52393e-35 0)
(6.32883e-37 1.42359e-35 0)
(1.11043e-36 1.51419e-35 0)
(1.06605e-36 9.06353e-37 0)
(6.39548e-38 1.02169e-37 0)
(7.58338e-39 5.18253e-39 0)
(-3.59517e-40 1.09342e-39 0)
(-1.48632e-38 9.94762e-39 0)
(-1.20301e-37 1.99201e-37 0)
(-2.06849e-36 1.71089e-36 0)
(-1.16202e-36 2.93822e-35 0)
(-2.10934e-37 1.34262e-35 0)
(3.69913e-37 -4.39197e-35 0)
(-4.22556e-37 -3.11024e-35 0)
(-3.22125e-37 -9.79307e-37 0)
(1.49649e-36 1.51939e-35 0)
(2.23318e-36 1.92328e-35 0)
(2.39371e-36 -1.39797e-35 0)
(7.7091e-37 -1.42039e-35 0)
(6.95483e-37 1.43728e-35 0)
(9.27496e-37 1.53736e-35 0)
(1.26895e-36 5.55128e-36 0)
(2.67085e-37 -4.54309e-36 0)
(-1.69621e-37 -2.30336e-37 0)
(8.57528e-38 -2.19054e-37 0)
(1.85148e-36 -1.52018e-36 0)
(-3.04521e-36 -2.72543e-35 0)
(4.37834e-37 2.83732e-35 0)
(7.50008e-36 4.51904e-35 0)
(1.71356e-36 1.66972e-35 0)
(6.25949e-37 -5.99231e-36 0)
(-7.97703e-37 4.26459e-35 0)
(-1.72859e-37 7.93629e-37 0)
(-4.20753e-36 -3.08051e-35 0)
(3.40834e-38 -1.00129e-36 0)
(-8.61608e-38 -8.97638e-37 0)
(-8.33154e-38 1.97166e-36 0)
(8.61459e-38 1.96474e-36 0)
(1.26031e-37 -9.59015e-37 0)
(2.52312e-39 -2.01872e-36 0)
(-8.58007e-38 -1.01955e-36 0)
(-4.8687e-38 9.51775e-37 0)
(3.71394e-38 1.01263e-36 0)
(3.99094e-38 6.08765e-38 0)
(2.52183e-39 7.26667e-39 0)
(3.0219e-40 3.71416e-40 0)
(-1.48265e-41 8.03268e-41 0)
(-5.91866e-40 7.12157e-40 0)
(-4.74044e-39 1.41653e-38 0)
(-7.73116e-38 1.14512e-37 0)
(-3.46557e-38 1.96472e-36 0)
(1.32325e-37 8.97769e-37 0)
(8.61017e-38 -2.93795e-36 0)
(-8.3702e-38 -2.07993e-36 0)
(-8.90258e-38 -6.68839e-38 0)
(-2.19448e-38 1.00903e-36 0)
(7.92818e-38 1.15217e-36 0)
(9.08035e-38 -9.40855e-37 0)
(-4.29912e-38 -9.5035e-37 0)
(-4.64262e-38 9.60699e-37 0)
(2.50391e-38 1.02263e-36 0)
(5.30962e-38 2.43534e-37 0)
(1.57172e-38 -1.75413e-37 0)
(-1.15818e-38 -9.86624e-39 0)
(2.98611e-39 -1.42977e-38 0)
(6.77742e-38 -9.08429e-38 0)
(-1.34588e-37 -1.75691e-36 0)
(-1.27944e-37 3.15288e-36 0)
(1.51779e-37 3.08756e-36 0)
(1.14646e-37 1.12244e-36 0)
(-3.97471e-38 -5.34263e-37 0)
(-1.94283e-38 2.84818e-36 0)
(1.34298e-37 6.00768e-38 0)
(-1.60606e-37 -1.93601e-36 0)
(-6.0377e-38 -1.24628e-38 0)
(-9.02983e-39 -3.18998e-38 0)
(-5.91795e-39 7.40852e-38 0)
(5.84556e-39 7.37419e-38 0)
(8.05244e-39 -3.59487e-38 0)
(1.33971e-40 -7.58682e-38 0)
(-5.92076e-39 -3.83395e-38 0)
(-3.95482e-39 3.56602e-38 0)
(1.8829e-39 3.80639e-38 0)
(2.11476e-39 2.40472e-39 0)
(1.33921e-40 2.89794e-40 0)
(1.64385e-41 1.53287e-41 0)
(-8.07524e-43 3.32375e-42 0)
(-3.21967e-41 2.93843e-41 0)
(-2.51348e-40 5.64401e-40 0)
(-4.09639e-39 4.52072e-39 0)
(-1.6666e-39 7.3737e-38 0)
(9.67678e-39 3.35289e-38 0)
(5.93719e-39 -1.10252e-37 0)
(-5.72407e-39 -7.82849e-38 0)
(-6.16667e-39 -2.60608e-39 0)
(-2.34106e-39 3.81939e-38 0)
(4.11587e-39 4.85112e-38 0)
(4.53067e-39 -3.49512e-38 0)
(-3.66093e-39 -3.55632e-38 0)
(-3.82706e-39 3.60548e-38 0)
(1.42916e-39 3.86985e-38 0)
(2.61682e-39 1.42757e-38 0)
(6.36371e-40 -1.15821e-38 0)
(-4.26516e-40 -6.2832e-40 0)
(1.44589e-40 -5.97419e-40 0)
(3.45151e-39 -3.45621e-39 0)
(-9.80212e-39 -6.47053e-38 0)
(-9.52804e-39 1.28374e-37 0)
(7.88874e-39 1.17027e-37 0)
(7.44824e-39 4.28155e-38 0)
(-3.29011e-39 -1.42332e-38 0)
(-1.15084e-39 1.0696e-37 0)
(9.50495e-39 2.22621e-39 0)
(-8.03884e-39 -7.72414e-38 0)
(-5.50545e-37 4.93302e-37 0)
(-2.68175e-38 3.01237e-38 0)
(-1.93499e-39 5.27582e-39 0)
(1.41273e-40 3.98596e-39 0)
(2.92744e-40 -1.90596e-39 0)
(4.79812e-42 -4.02742e-39 0)
(-2.2046e-40 -2.03583e-39 0)
(-1.50273e-40 1.89306e-39 0)
(6.65209e-41 2.02083e-39 0)
(7.56912e-41 1.27832e-40 0)
(4.9601e-42 1.5773e-41 0)
(6.10124e-43 8.35876e-43 0)
(-3.0694e-44 1.82899e-43 0)
(-1.19438e-42 1.6017e-42 0)
(-9.30792e-42 3.07178e-41 0)
(-1.46453e-40 2.3995e-40 0)
(-5.79277e-41 3.9146e-39 0)
(3.62782e-40 1.78011e-39 0)
(2.21059e-40 -5.8542e-39 0)
(-2.12649e-40 -4.15609e-39 0)
(-2.30592e-40 -1.40067e-40 0)
(-1.00745e-40 2.01767e-39 0)
(1.4659e-40 2.38664e-39 0)
(1.6956e-40 -1.86471e-39 0)
(-1.38998e-40 -1.88911e-39 0)
(-1.45863e-40 1.91327e-39 0)
(4.25637e-41 2.04641e-39 0)
(1.01895e-40 5.78309e-40 0)
(3.1177e-41 -4.34749e-40 0)
(-2.29734e-41 -2.51523e-41 0)
(4.6433e-42 -3.02968e-41 0)
(1.20271e-40 -1.62288e-40 0)
(-3.83139e-40 -3.30257e-39 0)
(-3.57922e-40 9.17528e-39 0)
(2.95741e-40 6.34515e-39 0)
(2.66698e-40 2.28585e-39 0)
(-1.2411e-40 -9.43851e-40 0)
(-3.14691e-41 5.67228e-39 0)
(3.63363e-40 1.27017e-40 0)
(-3.01074e-40 -3.92718e-39 0)
(-1.16106e-35 -5.75417e-39 0)
(-5.21854e-37 -3.63512e-40 0)
(-3.3714e-38 1.28394e-40 0)
(-1.4136e-39 1.39491e-40 0)
(-6.20517e-41 -6.82465e-41 0)
(-2.75157e-42 -1.44231e-40 0)
(-1.01013e-41 -7.29327e-41 0)
(-6.83288e-42 6.76421e-41 0)
(2.9675e-42 7.23764e-41 0)
(3.3849e-42 4.73638e-42 0)
(2.21907e-43 5.85656e-43 0)
(2.7531e-44 3.17792e-44 0)
(-1.38477e-45 6.94642e-45 0)
(-5.38955e-44 6.08922e-44 0)
(-4.16187e-43 1.13983e-42 0)
(-6.54927e-42 8.88935e-42 0)
(-2.57654e-42 1.40045e-40 0)
(1.64321e-41 6.34575e-41 0)
(9.99349e-42 -2.09415e-40 0)
(-9.60892e-42 -1.4899e-40 0)
(-1.04149e-41 -5.13065e-42 0)
(-4.38629e-42 7.26865e-41 0)
(6.54823e-42 9.32035e-41 0)
(7.3494e-42 -6.6162e-41 0)
(-6.33355e-42 -6.74322e-41 0)
(-6.62195e-42 6.84533e-41 0)
(2.1118e-42 7.36944e-41 0)
(4.33e-42 2.82709e-41 0)
(1.16747e-42 -2.29505e-41 0)
(-8.13153e-43 -1.30027e-42 0)
(1.83044e-43 -1.16037e-42 0)
(5.15238e-42 -5.70589e-42 0)
(-2.10001e-41 -1.15241e-40 0)
(-1.62203e-41 3.57969e-40 0)
(1.68813e-41 2.29796e-40 0)
(1.2461e-41 8.29357e-41 0)
(-5.61094e-42 -2.51817e-41 0)
(-1.63672e-42 2.03057e-40 0)
(1.62342e-41 4.47096e-42 0)
(-1.30571e-41 -1.47327e-40 0)
(-4.17038e-37 -6.02152e-37 0)
(-2.06743e-38 -3.75329e-38 0)
(-1.40876e-39 -1.56155e-39 0)
(-6.30111e-41 -7.51123e-41 0)
(-3.00945e-42 -6.23241e-42 0)
(-1.34952e-43 -6.5946e-42 0)
(-3.44083e-43 -3.2681e-42 0)
(-2.31811e-43 3.02572e-42 0)
(9.9935e-44 3.23778e-42 0)
(1.1445e-43 2.11959e-43 0)
(7.6891e-45 2.6433e-44 0)
(9.51653e-46 1.43415e-45 0)
(-4.86903e-47 3.13836e-46 0)
(-1.86226e-45 2.74787e-45 0)
(-1.44232e-44 5.14454e-44 0)
(-2.21259e-43 3.97588e-43 0)
(-8.63398e-44 6.26493e-42 0)
(5.5643e-43 2.83887e-42 0)
(3.38407e-43 -9.36881e-42 0)
(-3.2511e-43 -6.66509e-42 0)
(-3.53623e-43 -2.31275e-43 0)
(-1.58866e-43 3.24024e-42 0)
(2.21176e-43 3.95283e-42 0)
(2.57998e-43 -2.97067e-42 0)
(-2.13946e-43 -3.01804e-42 0)
(-2.24828e-43 3.06102e-42 0)
(6.17749e-44 3.28725e-42 0)
(1.56271e-43 1.05893e-42 0)
(4.95238e-44 -8.20603e-43 0)
(-3.6738e-44 -4.85301e-44 0)
(5.28872e-45 -4.92786e-44 0)
(1.68545e-43 -2.22255e-43 0)
(-7.71085e-43 -4.93793e-42 0)
(-5.49217e-43 1.9698e-41 0)
(6.29294e-43 1.04965e-41 0)
(4.16039e-43 3.73261e-42 0)
(-1.88648e-43 -1.34184e-42 0)
(-4.43093e-44 9.07564e-42 0)
(5.58527e-43 2.09283e-43 0)
(-4.5862e-43 -6.3925e-42 0)
(2.56688e-36 -2.10074e-38 0)
(1.08148e-37 -1.02238e-39 0)
(5.6863e-39 -4.38708e-41 0)
(2.23263e-40 -2.29871e-42 0)
(1.00927e-41 -2.09031e-43 0)
(3.68729e-43 -2.2329e-43 0)
(1.50072e-45 -1.1057e-43 0)
(-8.54218e-45 1.02155e-43 0)
(3.91782e-45 1.09506e-43 0)
(4.467e-45 7.34582e-45 0)
(3.00138e-46 9.13925e-46 0)
(3.71696e-47 5.04213e-47 0)
(-1.90054e-48 1.09928e-47 0)
(-7.27346e-47 9.66182e-47 0)
(-5.62939e-46 1.77791e-45 0)
(-8.63461e-45 1.37813e-44 0)
(-3.36848e-45 2.11712e-43 0)
(2.17261e-44 9.56779e-44 0)
(1.32123e-44 -3.1657e-43 0)
(-1.26914e-44 -2.2558e-43 0)
(-1.37957e-44 -7.93965e-45 0)
(-5.99341e-45 1.10127e-43 0)
(8.63098e-45 1.42965e-43 0)
(9.85577e-45 -9.97166e-44 0)
(-8.36443e-45 -1.01813e-43 0)
(-8.77196e-45 1.03452e-43 0)
(2.61175e-45 1.11679e-43 0)
(5.88621e-45 4.48482e-44 0)
(1.72027e-45 -3.65906e-44 0)
(-1.23447e-45 -2.13793e-45 0)
(1.71183e-46 -1.73557e-45 0)
(6.26793e-45 -7.15815e-45 0)
(-3.51623e-44 -1.61671e-43 0)
(-2.14434e-44 7.2425e-43 0)
(2.96275e-44 3.5978e-43 0)
(1.67632e-44 1.27732e-43 0)
(-7.32385e-45 -3.50753e-44 0)
(-1.94835e-45 3.06874e-43 0)
(2.1605e-44 6.94822e-45 0)
(-1.75262e-44 -2.24253e-43 0)
(-1.9186e-37 1.65361e-37 0)
(-8.42888e-39 1.51306e-38 0)
(-4.50185e-40 6.46456e-40 0)
(-1.82524e-41 2.99722e-41 0)
(-8.35926e-43 1.10038e-42 0)
(-3.14062e-44 3.57693e-44 0)
(-1.68968e-45 -2.79145e-45 0)
(-3.3211e-46 4.04212e-45 0)
(1.22125e-46 4.27585e-45 0)
(1.4205e-46 2.86817e-46 0)
(9.72188e-48 3.57003e-47 0)
(1.19777e-48 1.96778e-48 0)
(-6.20132e-50 4.27534e-49 0)
(-2.34327e-48 3.77121e-48 0)
(-1.82451e-47 6.94481e-47 0)
(-2.74543e-46 5.37959e-46 0)
(-1.06504e-46 8.26324e-45 0)
(6.90887e-46 3.73431e-45 0)
(4.20259e-46 -1.2356e-44 0)
(-4.03446e-46 -8.80465e-45 0)
(-4.39757e-46 -3.11382e-46 0)
(-2.00602e-46 4.288e-45 0)
(2.74421e-46 5.37708e-45 0)
(3.23093e-46 -3.90226e-45 0)
(-2.65305e-46 -3.97527e-45 0)
(-2.79429e-46 4.03636e-45 0)
(7.35575e-47 4.35005e-45 0)
(1.97116e-46 1.55786e-45 0)
(6.4745e-47 -1.23548e-45 0)
(-4.85125e-47 -7.44026e-47 0)
(4.24412e-48 -6.41972e-47 0)
(1.91451e-46 -2.36925e-46 0)
(-1.21052e-45 -6.01272e-45 0)
(-6.81811e-46 3.31219e-44 0)
(1.03317e-45 1.43384e-44 0)
(5.29977e-46 5.01775e-45 0)
(-2.3118e-46 -1.56948e-45 0)
(-5.1001e-47 1.19688e-44 0)
(6.95907e-46 2.79195e-46 0)
(-5.74925e-46 -8.56779e-45 0)
(-5.34932e-36 -1.20592e-39 0)
(-2.26444e-37 -1.98243e-40 0)
(-1.20132e-38 -8.9346e-42 0)
(-4.74142e-40 -4.23321e-43 0)
(-2.15838e-41 -1.59217e-44 0)
(-7.93873e-43 -9.12139e-46 0)
(-3.19082e-44 -1.59279e-46 0)
(-1.10425e-45 1.25911e-46 0)
(-3.52248e-47 1.35981e-46 0)
(3.6824e-48 9.29099e-48 0)
(2.97048e-49 1.15058e-48 0)
(4.03134e-50 6.41801e-50 0)
(-2.18821e-51 1.38649e-50 0)
(-8.13138e-50 1.2303e-49 0)
(-6.35839e-49 2.23765e-48 0)
(-9.56276e-48 1.74376e-47 0)
(-3.70894e-48 2.62782e-46 0)
(2.40639e-47 1.1851e-46 0)
(1.46381e-47 -3.92893e-46 0)
(-1.40508e-47 -2.80328e-46 0)
(-1.53098e-47 -1.00108e-47 0)
(-6.8248e-48 1.37014e-46 0)
(9.55854e-48 1.80367e-46 0)
(1.10911e-47 -1.23414e-46 0)
(-9.24759e-48 -1.26248e-46 0)
(-9.72718e-48 1.28371e-46 0)
(2.71586e-48 1.3894e-46 0)
(6.70359e-48 5.85614e-47 0)
(2.09276e-48 -4.81212e-47 0)
(-1.53861e-48 -2.87883e-48 0)
(1.06277e-49 -2.08553e-48 0)
(6.30862e-48 -6.90898e-48 0)
(-4.78706e-47 -1.83794e-46 0)
(-2.37464e-47 1.14162e-45 0)
(4.1701e-47 4.63268e-46 0)
(1.89814e-47 1.61413e-46 0)
(-8.00372e-48 -3.96764e-47 0)
(-1.94207e-48 3.80814e-46 0)
(2.4084e-47 8.71762e-48 0)
(-1.97434e-47 -2.80711e-46 0)
(-8.43231e-38 -1.67258e-37 0)
(-3.84483e-39 -1.54186e-38 0)
(-2.04653e-40 -6.59995e-40 0)
(-8.48962e-42 -3.06766e-41 0)
(-3.87867e-43 -1.1327e-42 0)
(-1.47855e-44 -4.55515e-44 0)
(-5.96786e-46 -1.56738e-45 0)
(-2.13168e-47 -5.20392e-47 0)
(-6.33963e-49 2.92818e-48 0)
(1.2305e-49 2.64175e-49 0)
(9.44537e-51 3.81398e-50 0)
(1.22565e-51 2.17022e-51 0)
(-6.60593e-53 4.75994e-52 0)
(-2.44639e-51 4.26516e-51 0)
(-1.92864e-50 7.76517e-50 0)
(-2.85811e-49 6.07734e-49 0)
(-1.10363e-49 9.1537e-48 0)
(7.19214e-49 4.12791e-48 0)
(4.376e-49 -1.36855e-47 0)
(-4.19841e-49 -9.76525e-48 0)
(-4.5849e-49 -3.49761e-49 0)
(-2.12444e-49 4.7654e-48 0)
(2.85683e-49 6.12757e-48 0)
(3.39728e-49 -4.30664e-48 0)
(-2.75795e-49 -4.39884e-48 0)
(-2.91146e-49 4.47034e-48 0)
(7.31481e-50 4.8333e-48 0)
(2.08796e-49 1.89256e-48 0)
(7.10572e-50 -1.52895e-48 0)
(-5.38559e-50 -9.35276e-50 0)
(1.85673e-51 -6.87959e-50 0)
(1.79351e-49 -1.94474e-49 0)
(-1.54333e-48 -6.05695e-48 0)
(-7.09654e-49 4.52311e-47 0)
(1.35785e-48 1.6481e-47 0)
(5.6729e-49 5.66124e-48 0)
(-2.37489e-49 -1.53389e-48 0)
(-4.87322e-50 1.32577e-47 0)
(7.27384e-49 3.09196e-49 0)
(-6.05181e-49 -9.63726e-48 0)
(2.6858e-36 5.57257e-41 0)
(1.13656e-37 -3.90586e-40 0)
(6.02837e-39 -1.9425e-41 0)
(2.37879e-40 -9.284e-43 0)
(1.08276e-41 -3.54381e-44 0)
(3.98198e-43 -1.43122e-45 0)
(1.59968e-44 -5.03131e-47 0)
(5.48783e-46 -1.68689e-48 0)
(1.9832e-47 8.24048e-50 0)
(6.40254e-49 7.85724e-51 0)
(2.12527e-50 1.14206e-51 0)
(6.67249e-52 6.56955e-53 0)
(1.69826e-53 1.43349e-53 0)
(-7.6204e-53 1.29479e-52 0)
(-6.0954e-52 2.33639e-51 0)
(-9.02511e-51 1.84351e-50 0)
(-3.48376e-51 2.73616e-49 0)
(2.27086e-50 1.23187e-49 0)
(1.38175e-50 -4.09031e-49 0)
(-1.32552e-50 -2.92164e-49 0)
(-1.44735e-50 -1.05353e-50 0)
(-6.60749e-51 1.43014e-49 0)
(9.02109e-51 1.91104e-49 0)
(1.06266e-50 -1.28144e-49 0)
(-8.71184e-51 -1.31348e-49 0)
(-9.18991e-51 1.3363e-49 0)
(2.4046e-51 1.44995e-49 0)
(6.49305e-51 6.41979e-50 0)
(2.14353e-51 -5.3182e-50 0)
(-1.60832e-51 -3.24325e-51 0)
(1.72733e-53 -2.06735e-51 0)
(5.30368e-51 -5.00785e-51 0)
(-5.428e-50 -1.72318e-49 0)
(-2.24058e-50 1.4596e-48 0)
(4.84279e-50 5.01256e-49 0)
(1.83707e-50 1.7104e-49 0)
(-7.45213e-51 -3.71769e-50 0)
(-1.63867e-51 3.96458e-49 0)
(2.28711e-50 9.07195e-51 0)
(-1.89378e-50 -2.95088e-49 0)
(1.36805e-37 1.09212e-37 0)
(6.06621e-39 5.75095e-39 0)
(3.22395e-40 2.26589e-40 0)
(1.31363e-41 1.03077e-41 0)
(5.99311e-43 3.79014e-43 0)
(2.25628e-44 1.52238e-44 0)
(9.08766e-46 5.22224e-46 0)
(3.17368e-47 1.88703e-47 0)
(1.15002e-48 6.09184e-49 0)
(3.75103e-50 2.02203e-50 0)
(1.24374e-51 6.35118e-52 0)
(3.8568e-53 2.02157e-53 0)
(1.08077e-54 9.56374e-55 0)
(-2.12761e-54 4.07147e-54 0)
(-1.73248e-53 7.3291e-53 0)
(-2.53573e-52 5.82657e-52 0)
(-9.75322e-53 8.64017e-51 0)
(6.37995e-52 3.88955e-51 0)
(3.88275e-52 -1.29155e-50 0)
(-3.7233e-52 -9.22638e-51 0)
(-4.07312e-52 -3.33276e-52 0)
(-1.91829e-52 4.51222e-51 0)
(2.53459e-52 5.93861e-51 0)
(3.04597e-52 -4.05085e-51 0)
(-2.44317e-52 -4.14834e-51 0)
(-2.58515e-52 4.21868e-51 0)
(6.1696e-53 4.57496e-51 0)
(1.88608e-52 1.93605e-51 0)
(6.64488e-53 -1.5883e-51 0)
(-5.09675e-53 -9.8525e-53 0)
(-7.40082e-55 -6.17543e-53 0)
(1.39903e-52 -1.14988e-52 0)
(-1.63937e-51 -5.0967e-51 0)
(-6.29438e-52 5.14014e-50 0)
(1.47418e-51 1.61715e-50 0)
(5.18502e-52 5.43998e-51 0)
(-2.07874e-52 -1.26602e-51 0)
(-3.91929e-53 1.25138e-50 0)
(6.48139e-52 2.89327e-52 0)
(-5.43213e-52 -9.2314e-51 0)
(-1.27452e-39 1.14984e-38 0)
(-5.55401e-41 6.05739e-40 0)
(-3.02352e-42 2.46414e-41 0)
(-1.20984e-43 1.12261e-42 0)
(-5.5655e-45 4.22668e-44 0)
(-2.05837e-46 1.70198e-45 0)
(-8.2903e-48 5.94648e-47 0)
(-2.84603e-49 2.15526e-48 0)
(-1.02577e-50 7.02265e-50 0)
(-3.24259e-52 2.3254e-51 0)
(-1.04816e-53 7.14174e-53 0)
(-2.8928e-55 2.20013e-54 0)
(-1.13221e-56 7.33957e-56 0)
(-6.22663e-56 1.16633e-55 0)
(-5.02163e-55 2.063e-54 0)
(-7.34052e-54 1.65616e-53 0)
(-2.82208e-54 2.42773e-52 0)
(1.84667e-53 1.09147e-52 0)
(1.12392e-53 -3.62858e-52 0)
(-1.07764e-53 -2.59433e-52 0)
(-1.17895e-53 -9.41545e-54 0)
(-5.50451e-54 1.27217e-52 0)
(7.33725e-54 1.7268e-52 0)
(8.76877e-54 -1.13385e-52 0)
(-7.07306e-54 -1.16463e-52 0)
(-7.48196e-54 1.18539e-52 0)
(1.83126e-54 1.28938e-52 0)
(5.41206e-54 5.99699e-53 0)
(1.87569e-54 -5.01005e-53 0)
(-1.43221e-54 -3.10564e-54 0)
(-5.66841e-56 -1.72086e-54 0)
(3.73793e-54 -2.40491e-54 0)
(-5.21526e-53 -1.34542e-52 0)
(-1.82183e-53 1.55359e-51 0)
(4.73724e-53 4.62966e-52 0)
(1.53665e-53 1.54407e-52 0)
(-5.97843e-54 -2.92224e-53 0)
(-1.17994e-54 3.51738e-52 0)
(1.87147e-53 7.9778e-54 0)
(-1.56452e-53 -2.64545e-52 0)
(-1.33637e-37 1.15697e-37 0)
(-5.91546e-39 6.08954e-39 0)
(-3.12928e-40 2.39379e-40 0)
(-1.27459e-41 1.08867e-41 0)
(-5.80485e-43 3.9963e-43 0)
(-2.18651e-44 1.60486e-44 0)
(-8.80519e-46 5.49826e-46 0)
(-3.07838e-47 1.98598e-47 0)
(-1.11623e-48 6.35944e-49 0)
(-3.63372e-50 2.09355e-50 0)
(-1.20173e-51 6.27739e-52 0)
(-3.65309e-53 1.90178e-53 0)
(-1.11238e-54 5.3522e-55 0)
(-3.32922e-56 1.83132e-56 0)
(-1.42885e-56 5.96083e-56 0)
(-1.94033e-55 4.80012e-55 0)
(-7.43704e-56 7.02778e-54 0)
(4.88029e-55 3.15909e-54 0)
(2.97075e-55 -1.05031e-53 0)
(-2.8475e-55 -7.51059e-54 0)
(-3.12014e-55 -2.72815e-55 0)
(-1.49437e-55 3.68152e-54 0)
(1.93922e-55 4.95268e-54 0)
(2.35618e-55 -3.28393e-54 0)
(-1.86637e-55 -3.37168e-54 0)
(-1.9795e-55 3.43073e-54 0)
(4.46458e-56 3.73115e-54 0)
(1.46998e-55 1.69218e-54 0)
(5.35596e-56 -1.40658e-54 0)
(-4.15713e-56 -8.83755e-56 0)
(-2.47433e-57 -4.70271e-56 0)
(9.10607e-56 -3.46133e-56 0)
(-1.47714e-54 -3.59597e-54 0)
(-4.81436e-55 4.94695e-53 0)
(1.35032e-54 1.36992e-53 0)
(4.09531e-55 4.50331e-54 0)
(-1.56867e-55 -8.88273e-55 0)
(-2.67738e-56 1.01789e-53 0)
(4.98185e-55 2.31768e-55 0)
(-4.20687e-55 -7.61673e-54 0)
(-2.85685e-36 -1.36826e-37 0)
(-1.20508e-37 -7.65161e-39 0)
(-6.38941e-39 -3.06506e-40 0)
(-2.51555e-40 -1.39954e-41 0)
(-1.14472e-41 -5.1666e-43 0)
(-4.20281e-43 -2.07637e-44 0)
(-1.68806e-44 -7.14114e-46 0)
(-5.78379e-46 -2.58091e-47 0)
(-2.08933e-47 -8.28939e-49 0)
(-6.69078e-49 -2.73051e-50 0)
(-2.20279e-50 -8.20679e-52 0)
(-6.60504e-52 -2.48772e-53 0)
(-2.00108e-53 -7.01091e-55 0)
(-5.62911e-55 -1.96117e-56 0)
(-1.61649e-56 1.04049e-57 0)
(-5.60904e-57 1.27901e-56 0)
(-1.99978e-57 1.85748e-55 0)
(1.30564e-56 8.34081e-56 0)
(7.94843e-57 -2.7757e-55 0)
(-7.61781e-57 -1.98625e-55 0)
(-8.34891e-57 -7.2382e-57 0)
(-3.98281e-57 9.75909e-56 0)
(5.18894e-57 1.34631e-55 0)
(6.28865e-57 -8.65127e-56 0)
(-4.99322e-57 -8.90561e-56 0)
(-5.29635e-57 9.06745e-56 0)
(1.20896e-57 9.88712e-56 0)
(3.91819e-57 4.82876e-56 0)
(1.41797e-57 -4.06823e-56 0)
(-1.09945e-57 -2.5584e-57 0)
(-9.2258e-59 -1.21762e-57 0)
(2.19978e-57 -2.10607e-58 0)
(-4.30131e-56 -8.76786e-56 0)
(-1.28799e-56 1.40198e-54 0)
(3.96199e-56 3.69381e-55 0)
(1.12072e-56 1.20186e-55 0)
(-4.16905e-57 -1.94057e-56 0)
(-7.28543e-58 2.69112e-55 0)
(1.33141e-56 6.00933e-57 0)
(-1.12336e-56 -2.04637e-55 0)
(3.47742e-36 -3.22934e-37 0)
(1.47845e-37 -2.40228e-38 0)
(7.84484e-39 -1.00154e-39 0)
(3.10581e-40 -4.6247e-41 0)
(1.41413e-41 -1.70479e-42 0)
(5.21336e-43 -6.85198e-44 0)
(2.09496e-44 -2.35013e-45 0)
(7.20048e-46 -8.48996e-47 0)
(2.60225e-47 -2.72067e-48 0)
(8.35367e-49 -8.95735e-50 0)
(2.75143e-50 -2.68725e-51 0)
(8.26603e-52 -8.14153e-53 0)
(2.50535e-53 -2.29097e-54 0)
(7.05794e-55 -6.43318e-56 0)
(1.98187e-56 -1.65967e-57 0)
(3.95573e-58 2.98566e-58 0)
(-3.56349e-59 4.9689e-57 0)
(3.25229e-58 2.23129e-57 0)
(1.97817e-58 -7.42618e-57 0)
(-1.89529e-58 -5.31502e-57 0)
(-2.08002e-58 -1.93738e-58 0)
(-1.01354e-58 2.61153e-57 0)
(1.2913e-58 3.58753e-57 0)
(1.58687e-58 -2.31491e-57 0)
(-1.2408e-58 -2.38293e-57 0)
(-1.3192e-58 2.42572e-57 0)
(2.79571e-59 2.64549e-57 0)
(9.97532e-59 1.27786e-57 0)
(3.75476e-59 -1.07443e-57 0)
(-2.94804e-59 -6.83169e-59 0)
(-2.97114e-60 -3.06514e-59 0)
(4.90528e-59 1.9242e-59 0)
(-1.14402e-57 -2.11943e-57 0)
(-3.20472e-58 4.08525e-56 0)
(1.05932e-57 1.01089e-56 0)
(2.82124e-58 3.24077e-57 0)
(-1.02988e-58 -5.31087e-58 0)
(-1.56116e-59 7.19895e-57 0)