/*--------------------------------*- C++ -*----------------------------------*\
| =========                 |                                                 |
| \\      /  F ield         | OpenFOAM: The Open Source CFD Toolbox           |
|  \\    /   O peration     | Version:  2.4.0                                 |
|   \\  /    A nd           | Web:      www.OpenFOAM.org                      |
|    \\/     M anipulation  |                                                 |
\*---------------------------------------------------------------------------*/
FoamFile
{
    version     2.0;
    format      ascii;
    class       surfaceScalarField;
    location    "0.5";
    object      phi;
}
// * * * * * * * * * * * * * * * * * * * * * * * * * * * * * * * * * * * * * //

dimensions      [0 3 -1 0 0 0 0];

internalField   nonuniform List<scalar> 
15214
(
2.07539e-39
3.62576e-41
1.21296e-38
2.46785e-40
1.68886e-38
2.23371e-39
4.768e-37
1.80226e-39
2.61913e-41
-4.32167e-39
-4.76573e-37
-4.31831e-39
-1.46081e-38
1.84127e-39
2.10436e-39
2.51644e-39
2.71677e-38
2.73095e-39
4.9579e-37
4.11093e-39
4.91209e-37
-2.2303e-39
-4.45476e-37
-6.12393e-39
1.4435e-38
1.80226e-39
4.79102e-37
4.03592e-39
1.71147e-38
-1.84163e-39
1.21574e-38
-2.23747e-39
2.08037e-39
-2.47131e-40
2.00174e-40
-3.56513e-41
2.40157e-41
-3.39494e-42
2.17751e-42
-3.56922e-43
2.13418e-43
-3.06546e-44
1.77701e-44
-2.71079e-45
1.51865e-45
-2.11805e-46
2.31175e-46
-1.53419e-47
1.52675e-45
1.54251e-47
1.78765e-44
2.12906e-46
2.14811e-43
2.72612e-45
2.19376e-42
3.08498e-44
2.42112e-41
3.59418e-43
2.02135e-40
3.42285e-42
2.10217e-39
3.59772e-41
1.23331e-38
2.50164e-40
1.89905e-38
2.26967e-39
4.89131e-37
2.05239e-39
1.89905e-38
-2.05239e-39
1.23331e-38
-2.26967e-39
2.10217e-39
-2.50164e-40
2.02135e-40
-3.59772e-41
2.42112e-41
-3.42285e-42
2.19375e-42
-3.59447e-43
2.1472e-43
-3.11331e-44
1.73993e-44
-4.98344e-45
-1.15428e-45
-1.86281e-44
-2.07519e-45
-9.22877e-44
2.77361e-45
-5.49039e-43
-6.51723e-44
4.39848e-40
-3.78971e-41
2.5823e-39
-3.28845e-40
2.01018e-38
-2.8794e-39
3.40145e-38
-2.29894e-39
6.38287e-42
5.55595e-39
-3.39601e-38
5.55188e-39
-1.96116e-38
-2.34751e-39
4.48083e-40
-3.25338e-39
2.22972e-38
-3.54212e-39
5.45637e-38
-5.27177e-39
3.70868e-38
2.87528e-39
-1.08339e-38
7.8549e-39
3.07866e-39
-2.29894e-39
3.45099e-38
-5.1783e-39
2.01562e-38
2.34792e-39
2.58916e-39
2.88395e-39
4.42263e-40
3.29534e-40
4.79789e-41
4.44945e-41
5.82469e-42
4.11437e-42
5.58687e-43
4.10872e-43
5.54915e-44
3.42135e-44
4.77191e-45
2.92482e-45
4.12858e-46
2.23226e-46
6.41867e-47
1.5826e-47
4.15127e-46
-1.59089e-47
4.80144e-45
-2.24342e-46
5.58696e-44
-2.94064e-45
5.63043e-43
-3.44196e-44
5.87535e-42
-4.13572e-43
4.84813e-41
-4.14563e-42
4.4752e-40
-4.48707e-41
2.6312e-39
-3.33232e-40
2.05493e-38
-2.92426e-39
3.66451e-38
-2.63214e-39
2.05493e-38
2.63214e-39
2.6312e-39
2.92426e-39
4.4752e-40
3.33232e-40
4.84813e-41
4.48707e-41
5.87533e-42
4.1456e-42
5.62908e-43
4.13317e-43
5.47825e-44
3.1851e-44
-9.21188e-46
-1.77369e-44
-3.20037e-44
-1.70703e-43
-2.66593e-44
-8.70305e-43
3.27688e-44
-5.25345e-42
-6.20885e-43
8.35019e-41
-9.12166e-42
3.55431e-40
-7.62574e-41
2.0526e-39
-5.62085e-40
3.32828e-39
-4.28078e-40
1.55764e-42
1.07828e-39
-3.31635e-39
1.07722e-39
-1.9587e-39
-4.399e-40
8.49488e-41
-6.49262e-40
2.33659e-39
-7.1588e-40
5.46566e-39
-1.01284e-39
3.77747e-39
5.61011e-40
-8.24922e-40
1.50635e-39
4.50744e-40
-4.28076e-40
3.42342e-39
-9.90145e-40
2.0645e-39
4.40009e-40
3.57037e-40
5.63263e-40
8.35372e-41
7.64285e-41
1.03624e-41
1.07671e-41
1.41307e-42
1.06712e-42
1.44688e-43
1.09337e-43
1.51742e-44
9.46125e-45
1.35248e-45
8.23793e-46
1.20549e-46
6.44446e-47
1.91412e-47
4.62726e-48
1.21237e-46
-4.65224e-48
1.36127e-45
-6.47768e-47
1.52844e-44
-8.28419e-46
1.45919e-43
-9.52068e-45
1.42687e-42
-1.10095e-43
1.04916e-41
-1.07575e-42
8.48029e-41
-1.08669e-41
3.65956e-40
-7.73846e-41
2.13739e-39
-5.72944e-40
3.69408e-39
-5.05452e-40
2.13739e-39
5.05452e-40
3.65956e-40
5.72944e-40
8.48029e-41
7.73846e-41
1.04916e-41
1.08669e-41
1.42671e-42
1.07553e-42
1.44604e-43
1.07924e-43
4.60651e-45
-1.26133e-44
-5.54728e-44
-1.79539e-43
-3.26587e-43
-1.51627e-42
-2.70543e-43
-7.8715e-42
3.26538e-43
-4.84621e-41
-5.6843e-42
1.11058e-41
-2.3715e-42
3.6328e-41
-1.63535e-41
1.5927e-40
-1.13123e-40
2.47303e-40
-8.47659e-41
2.49421e-43
2.16867e-40
-2.45514e-40
2.16611e-40
-1.46657e-40
-8.75061e-41
1.12996e-41
-1.31885e-40
1.86329e-40
-1.4595e-40
4.17841e-40
-2.03094e-40
2.9621e-40
1.12811e-40
-3.88755e-41
3.01626e-40
4.91562e-41
-8.47574e-41
2.60109e-40
-1.97826e-40
1.61051e-40
8.7534e-41
3.65776e-41
1.13361e-40
1.10748e-41
1.6325e-41
1.53646e-42
2.49139e-42
2.25106e-43
2.60013e-43
2.428e-44
2.79456e-44
2.63241e-45
2.50013e-45
2.41572e-46
2.23784e-46
2.19591e-47
1.78697e-47
3.55099e-48
1.30317e-48
2.20882e-47
-1.31037e-48
2.43201e-46
-1.79645e-47
2.65243e-45
-2.25087e-46
2.44994e-44
-2.51659e-45
2.27494e-43
-2.81513e-44
1.55806e-42
-2.62287e-43
1.12751e-41
-2.5168e-42
3.78836e-41
-1.65566e-41
1.70541e-40
-1.15588e-40
2.85159e-40
-1.01312e-40
1.70541e-40
1.01312e-40
3.78836e-41
1.15588e-40
1.12751e-41
1.65566e-41
1.55792e-42
2.51667e-42
2.26038e-43
2.60661e-43
1.25341e-44
1.12398e-44
-9.5792e-44
-1.72071e-43
-5.31188e-43
-1.44436e-42
-3.10204e-42
-1.23774e-41
-2.5853e-42
-6.59354e-41
3.05794e-42
-4.13811e-40
-4.8372e-41
1.45016e-42
-2.76547e-42
3.48998e-42
-3.17528e-42
9.19984e-42
-1.66214e-41
1.28722e-41
-1.19451e-41
3.90371e-44
3.09326e-41
-1.26093e-41
3.09009e-41
-7.51479e-42
-1.23132e-41
1.49197e-42
-1.9037e-41
1.147e-41
-2.11626e-41
2.35489e-41
-2.88688e-41
1.80138e-41
1.61087e-41
1.50765e-42
4.28164e-41
5.18334e-42
-1.18708e-41
1.45766e-41
-2.80226e-41
9.4514e-42
1.23179e-41
3.51059e-42
1.62011e-41
1.4574e-42
2.48608e-42
2.20613e-43
3.99193e-43
3.46138e-44
4.35932e-44
3.88418e-45
4.8352e-45
4.34468e-46
4.45107e-46
4.07753e-47
4.0622e-47
3.77266e-48
3.30356e-48
6.18509e-49
2.43771e-49
3.79536e-48
-2.45149e-49
4.10587e-47
-3.32152e-48
4.37904e-46
-4.08656e-47
3.92116e-45
-4.48146e-46
3.50069e-44
-4.87247e-45
2.24056e-43
-4.39971e-44
1.48805e-42
-4.03576e-43
3.69572e-42
-2.52476e-42
1.06804e-41
-1.65558e-41
1.65603e-41
-1.43951e-41
1.06804e-41
1.43951e-41
3.69571e-42
1.65558e-41
1.48793e-42
2.52468e-42
2.22831e-43
4.02596e-43
2.25195e-44
3.22412e-44
-9.99585e-44
-1.18888e-43
-8.68694e-43
-1.29988e-42
-4.77895e-42
-1.09791e-41
-2.84929e-41
-9.6667e-41
-2.3933e-41
-5.33088e-40
2.76654e-41
-3.44782e-39
-3.98908e-40
-3.36923e-45
-2.05315e-41
4.81668e-43
-6.15189e-42
4.05502e-43
-6.18695e-42
3.28104e-43
-2.25662e-42
1.00672e-44
4.23115e-42
-2.63936e-43
4.31689e-42
-1.42681e-43
-1.71496e-42
1.75344e-43
-2.68392e-42
5.2105e-43
-2.98971e-42
8.1339e-43
-4.03754e-42
8.12737e-43
2.25569e-42
5.64021e-43
5.98177e-42
5.2028e-43
-1.64603e-42
4.99799e-43
-3.90851e-42
3.73799e-43
1.71433e-42
3.22582e-43
2.27025e-42
1.70803e-43
3.60584e-43
2.76132e-44
6.07428e-44
4.53536e-45
6.85565e-45
5.25567e-46
7.82714e-46
6.01429e-47
7.36328e-47
5.75499e-48
6.83613e-48
5.39985e-49
5.63646e-49
8.96409e-50
4.20048e-50
5.43303e-49
-4.22461e-50
5.79604e-48
-5.66769e-49
6.06341e-47
-6.87812e-48
5.30778e-46
-7.41509e-47
4.58966e-45
-7.8898e-46
2.80776e-44
-6.92235e-45
1.74801e-43
-6.14508e-44
3.45539e-43
-3.66643e-43
5.15933e-43
-2.32399e-42
6.42464e-43
-2.0126e-42
5.15927e-43
2.0126e-42
3.45463e-43
2.32396e-42
1.73902e-43
3.66153e-43
1.86277e-44
5.53986e-44
-9.30003e-44
-6.6514e-44
-8.23473e-43
-7.83568e-43
-7.02337e-42
-8.40306e-42
-3.95503e-41
-7.28569e-41
-2.40874e-40
-6.62192e-40
-2.04094e-40
-3.83819e-39
2.29195e-40
-2.54901e-38
-2.94986e-39
-1.30589e-42
-1.56997e-40
1.56925e-42
-4.58604e-41
5.8446e-43
-3.22901e-41
2.3678e-43
-5.05817e-42
4.52184e-44
-2.81979e-43
5.2313e-44
4.37332e-43
3.08606e-44
-2.18262e-43
2.05469e-44
-3.31048e-43
8.39863e-45
-3.68632e-43
-2.7281e-44
-4.92308e-43
1.32299e-44
2.75564e-43
8.88812e-44
7.28636e-43
5.47498e-44
-1.98893e-43
-1.71726e-44
-4.75371e-43
-2.78134e-45
2.07869e-43
3.16153e-44
2.7753e-43
1.98765e-44
4.56243e-44
3.35068e-45
7.95573e-45
5.69542e-46
9.23984e-46
6.75354e-47
1.0781e-46
7.87086e-48
1.03365e-47
7.64173e-49
9.72852e-49
7.25131e-50
8.12191e-50
1.21509e-50
6.10322e-51
7.29659e-50
-6.13881e-51
7.69734e-49
-8.16768e-50
7.93675e-48
-9.78953e-49
6.82265e-47
-1.04111e-47
5.76637e-46
-1.08701e-46
3.4102e-45
-9.33334e-46
2.0377e-44
-8.05304e-45
3.43806e-44
-4.64385e-44
1.36087e-44
-2.84541e-43
-6.58173e-45
-2.45322e-43
1.35652e-44
2.45306e-43
3.38424e-44
2.84337e-43
1.39113e-44
4.36724e-44
-6.53776e-44
-2.64924e-44
-7.22288e-43
-4.2555e-43
-6.22308e-42
-4.64335e-42
-5.44587e-41
-5.12062e-41
-3.16241e-40
-4.60276e-40
-1.99129e-39
-4.40017e-39
-1.70552e-39
-2.73022e-38
1.85627e-39
-1.91084e-37
-2.1695e-38
-6.92109e-42
-1.17861e-39
1.5241e-41
-3.26764e-40
5.22794e-42
-2.27671e-40
2.31544e-42
-3.36864e-41
3.63552e-43
-5.35668e-42
6.77161e-44
-5.32469e-43
1.23402e-44
-9.12671e-44
3.00606e-45
-4.5468e-44
-1.5392e-45
-4.44824e-44
-8.74437e-45
-5.82953e-44
-2.43208e-45
3.26282e-44
1.06788e-44
8.6144e-44
5.64015e-45
-2.33867e-44
-5.41467e-45
-5.6135e-44
-2.51533e-45
2.45087e-44
3.12108e-45
3.28824e-44
2.15516e-45
5.5301e-45
3.74771e-46
9.9189e-46
6.52362e-47
1.17648e-46
7.88513e-48
1.39722e-47
9.32037e-49
1.35902e-48
9.16423e-50
1.29328e-49
8.7768e-51
1.08997e-50
1.48312e-51
8.24439e-52
8.83236e-51
-8.29302e-52
9.23206e-50
-1.09619e-50
9.40004e-49
-1.30152e-49
7.96793e-48
-1.36902e-48
6.60751e-47
-1.40905e-47
3.81706e-46
-1.18876e-46
2.21232e-45
-1.00448e-45
3.42865e-45
-5.63353e-45
-7.52181e-46
-3.37542e-44
-4.59937e-45
-2.90229e-44
-1.01383e-45
2.89593e-44
1.61308e-46
3.29186e-44
-3.75009e-44
-5.85556e-45
-4.28167e-43
-1.44263e-43
-4.58745e-42
-1.82395e-42
-4.04536e-41
-2.03334e-41
-3.64221e-40
-2.31981e-40
-2.20245e-39
-2.20516e-39
-1.4307e-38
-2.25591e-38
-1.2396e-38
-1.57082e-37
1.29102e-38
-1.14099e-36
-1.31023e-37
1.88105e-41
-7.56937e-39
1.56695e-40
-2.24935e-39
4.71869e-41
-1.64557e-39
1.92035e-41
-2.32192e-40
2.88565e-42
-3.58882e-41
4.58214e-43
-3.78864e-42
5.22402e-44
-4.17179e-43
6.0508e-45
-4.18471e-44
2.63616e-46
-8.22391e-45
-1.13204e-45
-6.63114e-45
-4.25898e-46
3.54403e-45
1.17057e-45
9.39386e-45
5.80744e-46
-2.53685e-45
-7.29097e-46
-6.11596e-45
-3.6513e-46
2.66506e-45
3.1426e-46
3.59484e-45
2.27321e-46
6.17908e-46
4.03507e-47
1.13182e-46
7.14893e-48
1.3671e-47
8.76507e-49
1.64609e-48
1.04759e-49
1.62125e-49
1.04009e-50
1.55671e-50
1.00337e-51
1.32306e-51
1.70645e-52
1.00625e-52
1.00979e-51
-1.01224e-52
1.04789e-50
-1.3307e-51
1.05669e-49
-1.56677e-50
8.85889e-49
-1.63339e-49
7.24299e-48
-1.66032e-48
4.11183e-47
-1.38175e-47
2.33539e-46
-1.14667e-46
3.4673e-46
-6.29961e-46
-1.87664e-46
-3.69498e-45
-7.64822e-46
-3.18122e-45
-1.65805e-45
2.94377e-45
-1.82438e-44
5.35577e-46
-2.29722e-43
-4.35441e-44
-2.52842e-42
-5.67749e-43
-2.78077e-41
-7.32879e-42
-2.52683e-40
-8.43351e-41
-2.37393e-39
-1.0196e-39
-1.50661e-38
-1.05076e-38
-1.03959e-37
-1.20897e-37
-9.12786e-38
-9.79733e-37
9.13998e-38
-7.96248e-36
-8.63916e-37
1.18278e-39
-5.03242e-38
1.7486e-39
-1.24022e-38
4.08419e-40
-8.60394e-39
1.3786e-40
-1.16354e-39
1.95782e-41
-1.69214e-40
2.96669e-42
-1.72338e-41
3.25521e-43
-1.81856e-42
3.59622e-44
-1.61394e-43
3.30497e-45
-1.4863e-44
1.77704e-46
-1.89338e-45
-2.42964e-47
3.36498e-46
1.19634e-46
1.11319e-45
5.72264e-47
-3.01555e-46
-7.8221e-47
-7.28271e-46
-4.00729e-47
3.16925e-46
3.05371e-47
4.29094e-46
2.25893e-47
7.49042e-47
4.07926e-48
1.39381e-47
7.32385e-49
1.70598e-48
9.09159e-50
2.07542e-49
1.09637e-50
2.06302e-50
1.09791e-51
1.99412e-51
1.06562e-52
1.70522e-52
1.82278e-53
1.30203e-53
1.07245e-52
-1.30985e-53
1.10615e-51
-1.71516e-52
1.10587e-50
-2.00716e-51
9.18778e-50
-2.07869e-50
7.41739e-49
-2.09371e-49
4.15083e-48
-1.72473e-48
2.30969e-47
-1.41272e-47
3.18385e-47
-7.64404e-47
-5.20409e-47
-4.41968e-46
-4.98895e-46
-3.88104e-46
-5.9137e-45
2.15034e-46
-7.5045e-44
-1.8877e-45
-9.44169e-43
-3.31284e-44
-1.06091e-41
-4.38923e-43
-1.19846e-40
-6.03253e-42
-1.13096e-39
-7.92544e-41
-1.10821e-38
-1.21127e-39
-7.50556e-38
-1.8307e-38
-5.43696e-37
-2.93848e-37
-4.82417e-37
-3.61089e-36
4.44043e-37
-3.06611e-35
-3.50166e-36
-1.64692e-39
-2.86202e-41
-9.93015e-39
-2.03546e-40
-1.40264e-38
-2.03681e-39
-4.34202e-37
-1.67923e-39
1.42621e-46
3.95041e-39
4.34202e-37
3.95041e-39
1.40264e-38
-1.67923e-39
9.93104e-39
-2.0368e-39
1.64769e-39
-2.03527e-40
1.45709e-40
-2.81095e-41
1.67474e-41
-2.46768e-42
1.27728e-42
-2.48787e-43
-1.27735e-42
-3.94784e-44
-1.67482e-41
-2.48796e-43
-1.45719e-40
-2.46781e-42
-1.64782e-39
-2.81112e-41
-9.93246e-39
-2.03547e-40
-1.40433e-38
-2.03705e-39
-4.34349e-37
-1.68172e-39
-1.66458e-39
3.92205e-39
4.24124e-37
3.74439e-39
-1.66458e-39
-3.74439e-39
-4.34349e-37
-3.92205e-39
-1.40433e-38
1.68172e-39
-9.93246e-39
2.03705e-39
-1.64784e-39
2.03546e-40
-1.45852e-40
2.81095e-41
-1.81766e-41
2.44783e-42
-1.82884e-41
-1.53459e-45
-1.47128e-40
-2.46602e-42
-1.66317e-39
-2.83368e-41
-1.00613e-38
-2.05765e-40
-1.55438e-38
-2.06267e-39
-4.42616e-37
-1.85689e-39
-5.61281e-39
2.09126e-39
5.61269e-39
4.13032e-39
4.42614e-37
2.09125e-39
1.55276e-38
-1.85712e-39
9.9678e-39
-2.06441e-39
-2.19332e-40
-3.47861e-40
3.01078e-41
-2.11987e-39
2.71294e-40
-1.81428e-38
2.62622e-39
-3.11681e-38
2.14496e-39
6.70014e-47
-5.08086e-39
3.11681e-38
-5.08086e-39
1.81428e-38
2.14496e-39
2.12014e-39
2.62621e-39
3.48869e-40
2.71466e-40
3.49045e-41
3.49273e-41
4.04554e-42
2.98027e-42
3.2681e-43
2.84949e-43
-3.26828e-43
4.3909e-44
-4.04576e-42
2.84959e-43
-3.49072e-41
2.9804e-42
-3.48903e-40
3.49291e-41
-2.1205e-39
2.71488e-40
-1.81469e-38
2.6265e-39
-3.12034e-38
2.14797e-39
-3.52952e-40
-5.04564e-39
2.90127e-38
-4.80639e-39
-3.52952e-40
4.80639e-39
-3.12034e-38
5.04564e-39
-1.81469e-38
-2.14797e-39
-2.1205e-39
-2.6265e-39
-3.48906e-40
-2.71488e-40
-3.49417e-41
-3.49273e-41
-4.4119e-42
-2.9582e-42
-4.4407e-42
1.65285e-45
-3.52681e-41
2.97848e-42
-3.52591e-40
3.51884e-41
-2.15133e-39
2.74183e-40
-1.84605e-38
2.65842e-39
-3.29706e-38
2.38422e-39
-1.63403e-38
-2.6939e-39
1.63403e-38
-5.32285e-39
3.29702e-38
-2.69388e-39
1.84561e-38
2.38437e-39
2.12369e-39
2.65716e-39
2.14009e-40
-6.66596e-41
7.2195e-42
-2.93079e-40
6.30661e-41
-1.85999e-39
5.14274e-40
-3.07416e-39
4.02826e-40
-2.62621e-48
-9.89505e-40
3.07416e-39
-9.89505e-40
1.85999e-39
4.02826e-40
2.931e-40
5.14273e-40
6.65146e-41
6.31086e-41
7.58209e-42
8.44302e-42
9.87042e-43
7.73079e-43
8.44703e-44
7.57183e-44
-8.44755e-44
1.21323e-44
-9.87108e-43
7.5721e-44
-7.58287e-42
7.73116e-43
-6.6524e-41
8.44352e-42
-2.93195e-40
6.31148e-41
-1.86099e-39
5.14348e-40
-3.08184e-39
4.03605e-40
-6.75118e-41
-9.80986e-40
2.77338e-39
-9.25617e-40
-6.75118e-41
9.25617e-40
-3.08184e-39
9.80986e-40
-1.86099e-39
-4.03605e-40
-2.93195e-40
-5.14348e-40
-6.65248e-41
-6.31147e-41
-7.59235e-42
-8.44302e-42
-1.08242e-42
-7.66979e-43
-1.09027e-42
4.6367e-46
-7.67669e-42
7.72576e-43
-6.7418e-41
8.51213e-42
-2.9978e-40
6.3812e-41
-1.91982e-39
5.22012e-40
-3.30743e-39
4.58195e-40
-1.62672e-39
-5.30601e-40
1.62672e-39
-1.04558e-39
3.3074e-39
-5.30597e-40
1.91945e-39
4.58232e-40
2.97489e-40
5.21706e-40
4.96234e-41
-8.92945e-42
1.66851e-42
-3.01018e-41
1.34808e-41
-1.45177e-40
1.03622e-40
-2.30766e-40
8.00384e-41
-2.18547e-48
-1.99325e-40
2.30766e-40
-1.99325e-40
1.45176e-40
8.00385e-41
3.01013e-41
1.03622e-40
8.87856e-42
1.34946e-41
1.12896e-42
1.96009e-42
1.57657e-43
1.88875e-43
1.4152e-44
1.94159e-44
-1.4153e-44
3.21286e-45
-1.57669e-43
1.94166e-44
-1.1291e-42
1.88885e-43
-8.8802e-42
1.96023e-42
-3.01172e-41
1.34962e-41
-1.45336e-40
1.03642e-40
-2.31911e-40
8.02289e-41
-9.03799e-42
-1.97346e-40
1.9952e-40
-1.8564e-40
-9.03799e-42
1.8564e-40
-2.31911e-40
1.97346e-40
-1.45336e-40
-8.02289e-41
-3.01173e-41
-1.03642e-40
-8.88034e-42
-1.34962e-41
-1.13075e-42
-1.96009e-42
-1.73711e-43
-1.87259e-43
-1.75067e-43
1.25985e-46
-1.14488e-42
1.88738e-43
-9.02222e-42
1.97775e-42
-3.10868e-41
1.36657e-41
-1.53069e-40
1.05411e-40
-2.52974e-40
9.17441e-41
-1.22968e-40
-1.07409e-40
1.22968e-40
-2.11203e-40
2.52974e-40
-1.07408e-40
1.53068e-40
9.17469e-41
3.10552e-41
1.05304e-40
1.04763e-41
-1.19006e-42
2.65915e-43
-2.89816e-42
2.05476e-42
-8.52764e-42
1.48271e-41
-1.23866e-41
1.12552e-41
-7.67135e-49
-2.84897e-41
1.23866e-41
-2.84897e-41
8.5275e-42
1.12552e-41
2.89735e-42
1.48272e-41
1.17671e-42
2.05748e-42
1.62702e-43
3.14568e-43
2.43191e-44
3.17174e-44
2.2607e-45
3.36388e-45
-2.26087e-45
5.72523e-46
-2.43211e-44
3.36402e-45
-1.62726e-43
3.17193e-44
-1.17698e-42
3.14592e-43
-2.8999e-42
2.05777e-42
-8.55211e-42
1.48305e-41
-1.25518e-41
1.12872e-41
-1.20132e-42
-2.81718e-41
9.32394e-42
-2.64003e-41
-1.20132e-42
2.64003e-41
-1.25518e-41
2.81718e-41
-8.55211e-42
-1.12872e-41
-2.89991e-42
-1.48305e-41
-1.177e-42
-2.05776e-42
-1.62998e-43
-3.14567e-43
-2.68952e-44
-3.14294e-44
-2.71185e-44
2.28416e-47
-1.65255e-43
3.16925e-44
-1.19879e-42
3.17619e-43
-3.038e-42
2.08612e-42
-9.56356e-42
1.51131e-41
-1.42478e-41
1.30267e-41
-6.66621e-42
-1.54341e-41
6.66624e-42
-3.02902e-41
1.42486e-41
-1.54341e-41
9.57252e-42
1.30265e-41
3.08417e-42
1.50916e-41
1.57727e-42
-1.40719e-43
4.06844e-44
-2.67152e-43
2.9771e-43
-3.37467e-43
2.07918e-42
-3.43049e-43
1.56436e-42
-1.17205e-49
-3.99581e-42
3.43047e-43
-3.99581e-42
3.37444e-43
1.56437e-42
2.6698e-43
2.07925e-42
1.38531e-43
2.98636e-43
2.04139e-44
4.79622e-44
3.19212e-45
4.99628e-45
3.05492e-46
5.45555e-46
-3.05517e-46
9.48272e-47
-3.19241e-45
5.45579e-46
-2.04172e-44
4.9966e-45
-1.38569e-43
4.79664e-44
-2.67326e-43
2.98684e-43
-3.40677e-43
2.0798e-42
-3.63808e-43
1.56941e-42
-1.41764e-43
-3.9473e-42
5.53076e-44
-3.69213e-42
-1.41764e-43
3.69213e-42
-3.63808e-43
3.9473e-42
-3.40677e-43
-1.56941e-42
-2.67326e-43
-2.0798e-42
-1.38572e-43
-2.98683e-43
-2.0455e-44
-4.79622e-44
-3.54145e-45
-4.94857e-45
-3.57227e-45
3.84314e-48
-2.07599e-44
4.99209e-45
-1.41421e-43
4.84558e-44
-2.84507e-43
3.03134e-43
-4.58448e-43
2.12272e-42
-4.89023e-43
1.81954e-42
-1.91468e-43
-2.17173e-42
1.9148e-43
-4.25552e-42
4.89203e-43
-2.17173e-42
4.60362e-43
1.81939e-42
2.94346e-43
2.11871e-42
2.25873e-43
-1.62528e-44
1.4688e-44
-2.62492e-44
3.30437e-44
2.54098e-45
2.53813e-43
2.93169e-44
1.89433e-43
3.00563e-49
-4.88717e-43
-2.93145e-44
-4.88713e-43
-2.52236e-45
1.89491e-43
2.62227e-44
2.54362e-43
1.61661e-44
3.78138e-44
2.48079e-45
6.28975e-45
4.01423e-46
6.74171e-46
3.92114e-47
7.52278e-47
-3.92147e-47
1.33217e-47
-4.01463e-46
7.52314e-47
-2.48123e-45
6.74217e-46
-1.6171e-44
6.29034e-45
-2.62672e-44
3.78205e-44
2.11559e-45
2.54437e-43
2.67891e-44
1.90172e-43
-1.65729e-44
-4.82348e-43
-5.80625e-44
-4.50218e-43
-1.65729e-44
4.50218e-43
2.67891e-44
4.82348e-43
2.11559e-45
-1.90172e-43
-2.62672e-44
-2.54437e-43
-1.61714e-44
-3.78205e-44
-2.48618e-45
-6.28974e-45
-4.46389e-46
-6.67467e-46
-4.50414e-46
5.46544e-49
-2.52532e-45
6.73574e-46
-1.65288e-44
6.35767e-45
-2.83413e-44
3.84194e-44
-1.15252e-44
2.60046e-43
1.71394e-44
2.21621e-43
1.46977e-44
-2.6648e-43
-1.46951e-44
-5.21454e-43
-1.71087e-44
-2.66482e-43
1.18391e-44
2.21588e-43
2.99395e-44
2.59445e-43
2.8299e-44
4.21774e-45
-9.94563e-45
-1.94944e-45
-3.73505e-44
2.54419e-45
2.55197e-44
6.48662e-45
2.19026e-44
3.11474e-48
-5.79699e-44
-6.45734e-45
-5.79411e-44
-2.27916e-45
2.23189e-44
2.59233e-45
3.01524e-44
1.75548e-45
4.58577e-45
2.7774e-46
7.8507e-46
4.60171e-47
8.59234e-47
4.5736e-48
9.75979e-48
-4.57401e-48
1.75273e-48
-4.60219e-47
9.76027e-48
-2.77793e-46
8.59297e-47
-1.75607e-45
7.85149e-46
-2.59754e-45
4.58665e-45
2.23253e-45
3.01622e-44
6.17465e-45
2.24059e-44
-1.80214e-45
-5.71441e-44
-9.33288e-45
-5.32663e-44
-1.80214e-45
5.32663e-44
6.17465e-45
5.71441e-44
2.23253e-45
-2.24059e-44
-2.59754e-45
-3.01622e-44
-1.75612e-45
-4.58665e-45
-2.78379e-46
-7.85069e-46
-5.12738e-47
-8.50413e-47
-5.17495e-47
7.26305e-50
-2.82943e-46
8.58441e-47
-1.79699e-45
7.93868e-46
-2.82863e-45
4.6628e-45
7.59995e-46
3.08604e-44
5.38446e-45
2.61968e-44
3.35236e-45
-3.16642e-44
-3.35197e-45
-6.18945e-44
-5.38026e-45
-3.16646e-44
-7.18392e-46
2.61912e-44
3.03793e-45
3.07768e-44
3.39991e-45
1.53493e-43
1.48575e-42
1.13084e-44
-3.77077e-43
3.5394e-45
-3.78215e-44
1.13742e-45
-6.82275e-46
2.97827e-47
-6.55262e-45
-8.25433e-46
-6.35028e-45
-3.311e-46
2.42412e-45
2.61217e-46
3.29786e-45
1.85313e-46
5.12648e-46
2.99214e-47
8.96498e-47
5.0459e-48
9.99161e-48
5.07985e-49
1.15059e-48
-5.08031e-49
2.09189e-49
-5.04644e-48
1.15065e-48
-2.99274e-47
9.99238e-48
-1.85378e-46
8.96595e-47
-2.61784e-46
5.12756e-46
3.26155e-46
3.29906e-45
7.97249e-46
2.43508e-45
-1.9043e-46
-6.24564e-45
-1.11946e-45
-5.81369e-45
-1.9043e-46
5.81369e-45
7.97249e-46
6.24564e-45
3.26155e-46
-2.43508e-45
-2.61785e-46
-3.29906e-45
-1.85384e-46
-5.12755e-46
-2.99933e-47
-8.96499e-47
-5.63081e-48
-9.88633e-48
-5.68419e-48
8.73783e-51
-3.05002e-47
9.98206e-48
-1.89857e-46
9.06857e-47
-2.8659e-46
5.21595e-46
1.71343e-46
3.37862e-45
7.26473e-46
2.85693e-45
4.32552e-46
-3.47047e-45
-4.32501e-46
-6.77743e-45
-7.2595e-46
-3.47053e-45
-1.66296e-46
2.85614e-45
3.11792e-46
3.36826e-45
3.77383e-46
3.38036e-42
-6.84086e-42
3.16657e-43
-6.71466e-43
3.35517e-44
-5.46523e-44
2.78942e-45
-3.56418e-45
2.13903e-46
-1.02204e-45
-7.24254e-47
-7.73527e-46
-3.53732e-47
2.87117e-46
2.54601e-47
3.93721e-46
1.84277e-47
6.2164e-47
3.02653e-48
1.10464e-47
5.17146e-49
1.2475e-48
5.26546e-50
1.45145e-49
-5.26588e-50
2.66283e-50
-5.1719e-49
1.45153e-49
-3.02692e-48
1.24761e-48
-1.84304e-47
1.10478e-47
-2.54526e-47
6.21811e-47
3.58956e-47
3.93929e-46
8.46294e-47
2.89443e-46
-1.89481e-47
-7.45395e-46
-1.16195e-46
-6.93159e-46
-1.89481e-47
6.93159e-46
8.46294e-47
7.45395e-46
3.58956e-47
-2.89443e-46
-2.54526e-47
-3.93929e-46
-1.8431e-47
-6.2181e-47
-3.03382e-48
-1.10466e-47
-5.7785e-49
-1.2341e-48
-5.83427e-49
1.11887e-51
-3.08636e-48
1.24628e-48
-1.88887e-47
1.11771e-47
-2.79543e-47
6.32833e-47
2.05585e-47
4.03715e-46
7.8185e-47
3.40419e-46
4.59514e-47
-4.1504e-46
-4.59454e-47
-8.09952e-46
-7.81264e-47
-4.15048e-46
-2.00061e-47
3.40308e-46
3.06933e-47
4.02356e-46
4.55105e-47
3.73555e-38
-3.75729e-37
3.27257e-38
-1.17235e-37
6.36573e-39
-9.08784e-38
1.79851e-39
-1.08343e-38
2.35193e-40
-1.50843e-39
3.38746e-41
-1.44963e-40
3.56658e-42
-1.48854e-41
3.83835e-43
-1.27448e-42
3.47901e-44
-1.1118e-43
3.11479e-45
-8.69833e-45
2.46667e-46
-6.43287e-46
3.20401e-47
2.06188e-47
7.2983e-48
-2.16826e-47
-8.19728e-48
-4.4687e-47
-4.28544e-48
1.93214e-47
3.11036e-48
2.62631e-47
2.32647e-48
4.6584e-48
4.24759e-49
8.8575e-49
7.69234e-50
1.10164e-49
9.62527e-51
1.36085e-50
1.16716e-51
1.36984e-51
1.17489e-52
1.33853e-52
1.14412e-53
1.1554e-53
1.9616e-54
8.88624e-55
1.14861e-53
-8.93772e-55
1.17829e-52
-1.16174e-53
1.16726e-51
-1.34648e-52
9.54818e-51
-1.37868e-51
7.47881e-50
-1.36986e-50
3.8003e-49
-1.10831e-49
1.52704e-48
-8.88165e-49
-1.00016e-47
-4.59205e-48
-2.0682e-46
-2.44067e-47
-2.93056e-45
1.74601e-47
-4.11094e-44
6.32459e-46
-5.3365e-43
8.63556e-45
-6.89822e-42
1.18183e-43
-7.95519e-41
1.45215e-42
-9.37126e-40
1.59854e-41
-9.1938e-39
9.30385e-41
-9.66816e-38
-1.43991e-39
-6.96991e-37
-8.07059e-38
-5.85911e-36
-2.01385e-36
-5.22966e-36
-3.61459e-35
5.28384e-36
-1.83962e-35
-3.62564e-35
5.72428e-36
8.68916e-37
-5.09802e-37
6.09514e-37
-4.12682e-37
8.37166e-38
-1.0039e-37
1.56807e-38
-1.04885e-38
1.78647e-39
-1.3681e-39
2.27599e-40
-1.28628e-40
2.25396e-41
-1.31066e-41
2.30318e-42
-1.11694e-42
2.02313e-43
-9.7249e-44
1.77178e-44
-7.55753e-45
1.40214e-45
-5.8218e-46
1.09702e-46
-3.7268e-47
8.20315e-48
-4.09022e-48
8.44359e-50
-3.03829e-48
-2.07412e-49
1.22335e-48
1.76575e-49
1.68294e-48
1.31257e-49
3.01576e-49
2.42414e-50
5.76309e-50
4.44384e-51
7.21496e-51
5.61893e-52
8.93604e-52
6.87568e-53
9.02744e-53
6.97669e-54
8.82955e-54
6.83885e-55
7.63313e-55
1.18557e-55
5.87024e-56
6.98901e-55
-5.88496e-56
7.2289e-54
-7.63849e-55
7.30018e-53
-8.81113e-54
6.32284e-52
-8.95215e-53
5.6078e-51
-8.74993e-52
4.29776e-50
-6.82307e-51
4.28615e-49
-5.02529e-50
4.70965e-48
-1.71958e-49
6.73764e-47
4.67392e-49
9.5465e-46
3.25129e-47
1.31653e-44
5.13442e-46
1.68901e-43
7.25295e-45
2.12578e-42
9.99413e-44
2.41936e-41
1.23785e-42
2.74433e-40
1.39179e-41
2.65361e-39
9.11951e-41
2.63323e-38
-8.74066e-40
1.87647e-37
-6.03153e-38
1.41741e-36
-1.55595e-36
1.76457e-36
-2.86753e-35
-1.66173e-37
-1.66115e-33
-2.87878e-35
-7.48451e-37
2.70062e-35
-1.3755e-35
1.07232e-36
-5.42811e-37
8.16602e-37
4.3828e-38
1.47654e-37
7.96053e-39
1.52286e-38
1.29073e-39
1.89319e-39
1.27711e-40
1.78785e-40
1.32416e-41
1.7943e-41
1.13269e-42
1.53313e-42
9.86267e-44
1.32456e-43
7.65584e-45
1.0295e-44
5.91193e-46
7.91851e-46
4.23819e-47
5.64742e-47
2.88405e-48
3.91758e-48
3.07176e-50
2.45898e-49
8.36676e-50
2.68086e-50
9.79491e-50
8.63465e-51
1.76514e-50
1.47751e-51
3.40105e-51
2.64227e-52
4.29574e-52
3.3323e-53
5.35777e-53
4.07384e-54
5.44904e-54
4.14035e-55
5.3558e-55
4.08022e-56
4.65172e-56
1.10347e-56
3.57609e-57
1.18963e-55
-3.84651e-57
1.88914e-54
-5.15132e-56
3.11345e-53
-6.30859e-55
5.13527e-52
-7.21964e-54
8.56029e-51
-8.58096e-53
1.39432e-49
-9.97915e-52
2.24101e-48
-1.31934e-50
3.45542e-47
-1.79981e-49
5.20301e-46
-2.72439e-48
7.4122e-45
-4.06105e-47
1.03162e-43
-6.10579e-46
1.33516e-42
-8.64231e-45
1.70255e-41
-1.18882e-43
1.96025e-40
-1.45742e-42
2.26661e-39
-1.58286e-41
2.22838e-38
-8.0615e-41
2.28317e-37
1.90308e-39
1.67516e-36
9.43595e-38
1.35706e-35
2.32913e-36
1.2607e-35
4.19133e-35
1.73276e-35
1.86433e-33
4.20081e-35
-1.12152e-35
9.50208e-37
-3.76807e-37
5.15484e-37
-2.59904e-37
7.31415e-38
6.69648e-38
1.4064e-38
9.66603e-39
1.635e-39
1.45887e-39
2.11562e-40
1.4298e-40
2.11821e-41
1.47897e-41
2.18303e-42
1.26882e-42
1.93004e-43
1.10726e-43
1.69923e-44
8.62112e-45
1.35065e-45
6.66989e-46
1.05366e-46
4.76619e-47
7.63416e-48
3.33951e-48
5.37864e-49
2.11373e-49
3.52224e-50
1.83894e-50
2.88072e-51
6.53145e-51
5.56901e-52
1.08461e-51
8.60783e-53
2.02839e-52
1.48292e-53
2.5538e-53
1.85994e-54
3.17914e-54
2.27128e-55
3.23758e-55
2.31358e-56
3.18196e-56
2.28028e-57
2.76545e-57
5.45408e-58
2.02696e-58
5.1703e-57
-4.3019e-58
7.64682e-56
-7.07475e-57
1.17852e-54
-1.15371e-55
1.83266e-53
-1.89594e-54
2.89977e-52
-3.20214e-53
4.5345e-51
-5.36995e-52
6.96194e-50
-9.03923e-51
1.03702e-48
-1.47864e-49
1.47918e-47
-2.38208e-48
2.02894e-46
-3.66896e-47
2.62003e-45
-5.52223e-46
3.2393e-44
-7.81067e-45
3.68699e-43
-1.07123e-43
4.00839e-42
-1.30448e-42
3.80577e-41
-1.37875e-41
3.47085e-40
-5.5774e-41
2.28147e-39
2.22816e-39
1.55359e-38
9.77737e-38
-1.158e-38
2.35345e-36
4.85645e-37
4.14865e-35
1.11234e-36
2.77445e-35
4.15962e-35
6.58217e-37
8.41268e-38
-2.99654e-37
-2.10321e-38
-2.9462e-38
1.87459e-40
5.41382e-39
8.46175e-40
9.97065e-40
1.45013e-40
1.62466e-40
2.42847e-41
1.71261e-41
2.75022e-42
1.83655e-42
3.11418e-43
1.63913e-43
2.91671e-44
1.46396e-44
2.68899e-45
1.16887e-45
2.20654e-46
9.19266e-47
1.76651e-47
6.68291e-48
1.30447e-48
4.7445e-49
9.35346e-50
3.12461e-50
6.28021e-51
2.2934e-51
4.43666e-52
4.35136e-52
4.80773e-53
6.41947e-53
5.75852e-54
1.14348e-53
8.68628e-55
1.42863e-54
1.04881e-55
1.77385e-55
1.25753e-56
1.80971e-56
1.26937e-57
1.78072e-57
4.01976e-59
1.55592e-58
-1.66601e-57
2.22935e-59
-3.28018e-56
1.99893e-58
-6.21714e-55
4.07323e-57
-1.1485e-53
8.0583e-56
-2.04845e-52
1.53693e-54
-3.56191e-51
2.84623e-53
-5.94855e-50
5.077e-52
-9.69317e-49
8.81718e-51
-1.50506e-47
1.46841e-49
-2.2856e-46
2.38625e-48
-3.26733e-45
3.68866e-47
-4.59409e-44
5.58341e-46
-5.96247e-43
7.93768e-45
-7.70584e-42
1.11436e-43
-8.88399e-41
1.44498e-42
-1.0464e-39
1.90165e-41
-1.02625e-38
2.30588e-40
-1.07921e-37
3.08371e-39
-7.77727e-37
3.89956e-38
-6.54053e-36
5.50052e-37
-5.83883e-36
6.01828e-36
5.90921e-36
5.03904e-35
6.02851e-36
6.46209e-36
5.47201e-39
-4.96555e-38
-3.66176e-39
-4.9176e-39
-3.01892e-40
2.90809e-40
2.83172e-41
8.96277e-41
8.88992e-42
1.83911e-41
1.84079e-42
2.14518e-42
2.29367e-43
2.50425e-43
2.7527e-44
2.35621e-44
2.68961e-45
2.19753e-45
2.55166e-46
1.80813e-46
2.14566e-47
1.45727e-47
1.74814e-48
1.07877e-48
1.31163e-49
7.77575e-50
9.52192e-51
5.23581e-51
6.48365e-52
3.58205e-52
4.45028e-53
3.81338e-53
3.84139e-54
4.36647e-54
3.80502e-55
6.71447e-55
4.97322e-56
8.05894e-56
5.70953e-57
9.80841e-57
6.67497e-58
9.9456e-58
6.77705e-59
9.75103e-59
2.20913e-59
9.47697e-60
3.11016e-58
2.16395e-59
6.02148e-57
4.29967e-58
1.13258e-55
8.58295e-57
2.07524e-54
1.67203e-55
3.67262e-53
3.15704e-54
6.32549e-52
5.81406e-53
1.04648e-50
1.0336e-51
1.68424e-49
1.79218e-50
2.5832e-48
2.98247e-49
3.8572e-47
4.84542e-48
5.42318e-46
7.49129e-47
7.44579e-45
1.13402e-45
9.44118e-44
1.61288e-44
1.17806e-42
2.2639e-43
1.3124e-41
2.93366e-42
1.46335e-40
3.84544e-41
1.36026e-39
4.61064e-40
1.30535e-38
6.02195e-39
8.62091e-38
7.29494e-38
6.07706e-37
9.90792e-37
5.34193e-37
1.03676e-35
-5.31332e-37
8.66207e-35
1.03594e-35
-5.97116e-37
5.54418e-40
-4.21802e-39
-5.59142e-40
-4.73744e-40
-5.86111e-41
2.14589e-42
-2.6725e-42
5.41982e-42
3.21488e-43
1.39637e-42
1.26551e-43
1.78696e-43
1.8552e-44
2.2145e-44
2.45332e-45
2.17653e-45
2.53476e-46
2.092e-46
2.506e-47
1.76561e-47
2.16872e-48
1.44924e-48
1.80704e-49
1.09058e-49
1.37897e-50
7.95857e-51
1.01489e-51
5.43414e-52
6.9944e-53
3.67613e-53
4.74586e-54
3.12054e-54
3.53006e-55
2.96077e-55
2.90268e-56
3.87946e-56
3.09173e-57
4.40712e-57
3.22214e-58
5.21186e-58
3.60489e-59
5.2342e-59
1.2339e-59
5.1106e-60
1.8186e-58
6.54143e-61
3.62343e-57
4.47801e-60
7.05713e-56
9.13042e-59
1.33287e-54
1.82492e-57
2.45446e-53
3.56101e-56
4.36593e-52
6.73546e-55
7.56904e-51
1.2432e-53
1.26064e-49
2.21505e-52
2.04714e-48
3.85174e-51
3.16855e-47
6.42798e-50
4.79071e-46
1.04847e-48
6.82164e-45
1.62888e-47
9.53579e-44
2.49096e-46
1.23139e-42
3.62885e-45
1.57861e-41
5.45641e-44
1.80783e-40
8.5453e-43
2.10437e-39
1.66415e-41
2.0448e-38
3.84908e-40
2.11099e-37
9.93001e-39
1.50111e-36
2.37923e-37
1.22014e-35
4.90106e-36
1.08945e-35
7.83867e-35
-1.08868e-35
1.73691e-34
7.82774e-35
-1.19971e-35
4.26767e-41
-4.75749e-40
-4.69361e-41
-5.44473e-41
-5.51665e-42
-3.03566e-42
-4.44177e-43
1.52721e-43
-2.40021e-45
9.44802e-44
6.82899e-45
1.41834e-44
1.2078e-45
1.93793e-45
1.74448e-46
2.0123e-46
1.89556e-47
2.01527e-47
1.93831e-48
1.74991e-48
1.72069e-49
1.46865e-49
1.46061e-50
1.12389e-50
1.13204e-51