/*--------------------------------*- C++ -*----------------------------------*\
| =========                 |                                                 |
| \\      /  F ield         | OpenFOAM: The Open Source CFD Toolbox           |
|  \\    /   O peration     | Version:  2.4.0                                 |
|   \\  /    A nd           | Web:      www.OpenFOAM.org                      |
|    \\/     M anipulation  |                                                 |
\*---------------------------------------------------------------------------*/
FoamFile
{
    version     2.0;
    format      ascii;
    class       volVectorField;
    location    "0.5";
    object      U;
}
// * * * * * * * * * * * * * * * * * * * * * * * * * * * * * * * * * * * * * //

dimensions      [0 1 -1 0 0 0 0];

internalField   nonuniform List<vector> 
7700
(
(5.04347e-36 1.44294e-36 0)
(5.41869e-35 1.10813e-35 0)
(2.91984e-34 1.00346e-34 0)
(3.55745e-33 8.08708e-35 0)
(3.31525e-33 -1.93986e-34 0)
(-3.3145e-33 -1.93843e-34 0)
(-3.55174e-33 8.25566e-35 0)
(-2.32618e-34 1.12989e-34 0)
(2.92676e-34 1.22675e-34 0)
(3.85012e-33 1.84459e-34 0)
(6.932e-33 -1.00202e-34 0)
(3.51923e-34 -2.74856e-34 0)
(-2.96321e-33 8.08706e-35 0)
(3.37518e-33 1.81215e-34 0)
(3.56322e-33 -8.25713e-35 0)
(2.92676e-34 -1.00506e-34 0)
(5.42885e-35 -1.11007e-35 0)
(5.08399e-36 -1.5435e-36 0)
(6.28874e-37 -1.43823e-37 0)
(5.65213e-38 -1.47231e-38 0)
(5.62372e-39 -1.24142e-39 0)
(4.67098e-40 -1.07921e-40 0)
(4.00497e-41 -8.32222e-42 0)
(3.29169e-42 -5.96399e-43 0)
(3.30592e-42 5.99577e-43 0)
(4.02665e-41 8.36462e-42 0)
(4.69919e-40 1.08517e-40 0)
(5.66067e-39 1.2491e-39 0)
(5.69479e-38 1.48226e-38 0)
(6.34025e-37 1.44956e-37 0)
(5.1348e-36 1.55697e-36 0)
(5.48599e-35 1.12296e-35 0)
(2.97119e-34 1.01903e-34 0)
(3.61231e-33 9.2099e-35 0)
(3.61231e-33 -9.2099e-35 0)
(2.97119e-34 -1.01903e-34 0)
(5.48599e-35 -1.12296e-35 0)
(5.1348e-36 -1.55697e-36 0)
(6.34025e-37 -1.44956e-37 0)
(5.69479e-38 -1.48227e-38 0)
(5.66038e-39 -1.24968e-39 0)
(4.67606e-40 -1.13074e-40 0)
(2.8959e-41 -4.50001e-41 0)
(-6.19014e-41 -1.80083e-40 0)
(2.6766e-42 -1.05484e-39 0)
(7.64806e-41 -1.25629e-40 0)
(1.17625e-36 -6.60501e-37 0)
(1.13767e-35 -5.75565e-36 0)
(6.23205e-35 -5.21429e-35 0)
(5.11375e-34 -4.19779e-35 0)
(4.59379e-34 1.00724e-34 0)
(-4.59197e-34 1.00654e-34 0)
(-5.10004e-34 -4.2822e-35 0)
(-4.97006e-35 -5.86838e-35 0)
(6.24886e-35 -6.37408e-35 0)
(5.73862e-34 -9.57452e-35 0)
(9.83356e-34 5.20722e-35 0)
(7.50784e-35 1.42702e-34 0)
(-3.84272e-34 -4.19779e-35 0)
(4.72135e-34 -9.41201e-35 0)
(5.12757e-34 4.2829e-35 0)
(6.24886e-35 5.22209e-35 0)
(1.14044e-35 5.76758e-36 0)
(1.21754e-36 7.74146e-37 0)
(1.51747e-37 7.05605e-38 0)
(1.44862e-38 7.02071e-39 0)
(1.45838e-39 5.79893e-40 0)
(1.25319e-40 4.94219e-41 0)
(1.08688e-41 3.75146e-42 0)
(9.13902e-43 2.65321e-43 0)
(9.17951e-43 -2.66702e-43 0)
(1.09295e-41 -3.7701e-42 0)
(1.26101e-40 -4.96872e-41 0)
(1.46838e-39 -5.83358e-40 0)
(1.46005e-38 -7.06634e-39 0)
(1.53078e-37 -7.10904e-38 0)
(1.23055e-36 -7.80579e-37 0)
(1.15414e-35 -5.83102e-36 0)
(6.35515e-35 -5.29233e-35 0)
(5.22914e-34 -4.78083e-35 0)
(5.22914e-34 4.78083e-35 0)
(6.35515e-35 5.29233e-35 0)
(1.15414e-35 5.83102e-36 0)
(1.23055e-36 7.80579e-37 0)
(1.53078e-37 7.10903e-38 0)
(1.46001e-38 7.06579e-39 0)
(1.46496e-39 5.77825e-40 0)
(9.85044e-41 5.53173e-42 0)
(-1.24795e-40 -3.56996e-40 0)
(-7.88571e-40 -1.81149e-39 0)
(2.77298e-41 -1.07934e-38 0)
(9.07474e-40 -1.28079e-39 0)
(2.63311e-37 -1.5732e-37 0)
(2.11979e-36 -1.34084e-36 0)
(8.02401e-36 -9.9947e-36 0)
(5.05561e-35 -7.63334e-36 0)
(4.44312e-35 1.91737e-35 0)
(-4.43867e-35 1.91556e-35 0)
(-5.026e-35 -7.83742e-36 0)
(-5.64028e-36 -1.15243e-35 0)
(8.06467e-36 -1.26984e-35 0)
(5.86204e-35 -1.80198e-35 0)
(9.73664e-35 9.97642e-36 0)
(1.04404e-35 2.6807e-35 0)
(-3.39833e-35 -7.63332e-36 0)
(4.68472e-35 -1.76278e-35 0)
(5.08551e-35 7.83927e-36 0)
(8.06467e-36 1.00149e-35 0)
(2.12496e-36 1.34378e-36 0)
(2.59139e-37 1.86047e-37 0)
(3.65966e-38 1.82278e-38 0)
(3.73167e-39 1.84593e-39 0)
(3.97633e-40 1.58434e-40 0)
(3.54312e-41 1.36958e-41 0)
(3.16789e-42 1.06576e-42 0)
(2.72518e-43 7.62041e-44 0)
(2.7376e-43 -7.66128e-44 0)
(3.18627e-42 -1.07121e-42 0)
(3.56637e-41 -1.3772e-41 0)
(4.00544e-40 -1.59418e-40 0)
(3.76389e-39 -1.85855e-39 0)
(3.69583e-38 -1.83724e-38 0)
(2.62467e-37 -1.87733e-37 0)
(2.15776e-36 -1.36014e-36 0)
(8.28641e-36 -1.01824e-35 0)
(5.27134e-35 -8.9933e-36 0)
(5.27134e-35 8.9933e-36 0)
(8.28641e-36 1.01824e-35 0)
(2.15776e-36 1.36014e-36 0)
(2.62467e-37 1.87733e-37 0)
(3.69579e-38 1.83719e-38 0)
(3.75971e-39 1.8536e-39 0)
(3.67224e-40 1.0952e-40 0)
(-2.35757e-40 -3.88294e-40 0)
(-1.3474e-39 -3.32677e-39 0)
(-7.97319e-39 -1.69697e-38 0)
(2.5204e-40 -1.02576e-37 0)
(9.06717e-39 -1.21179e-38 0)
(3.96015e-38 -3.9526e-38 0)
(2.77353e-37 -3.04797e-37 0)
(7.59429e-37 -2.13512e-36 0)
(3.78604e-36 -1.6046e-36 0)
(3.27184e-36 4.09558e-36 0)
(-3.26472e-36 4.09083e-36 0)
(-3.74212e-36 -1.65564e-36 0)
(-4.43399e-37 -2.48681e-36 0)
(7.65884e-37 -2.75034e-36 0)
(4.55184e-36 -3.83742e-36 0)
(7.3731e-36 2.13021e-36 0)
(1.08055e-36 5.70017e-36 0)
(-2.19004e-36 -1.60458e-36 0)
(3.59293e-36 -3.73955e-36 0)
(3.83043e-36 1.65615e-36 0)
(7.65884e-37 2.14037e-36 0)
(2.78019e-37 3.05548e-37 0)
(3.80494e-38 4.63081e-38 0)
(5.80028e-39 4.80063e-39 0)
(6.24127e-40 5.13558e-40 0)
(6.88092e-41 4.57396e-41 0)
(6.31818e-42 4.08167e-42 0)
(5.76146e-43 3.24959e-43 0)
(5.05538e-44 2.36524e-44 0)
(5.07895e-44 -2.37827e-44 0)
(5.79594e-43 -3.26676e-43 0)
(6.36122e-42 -4.10531e-42 0)
(6.93377e-41 -4.60389e-41 0)
(6.29862e-40 -5.1731e-40 0)
(5.86267e-39 -4.84224e-39 0)
(3.86035e-38 -4.67753e-38 0)
(2.83182e-37 -3.09827e-37 0)
(7.97995e-37 -2.18178e-36 0)
(4.06914e-36 -1.91436e-36 0)
(4.06914e-36 1.91436e-36 0)
(7.97995e-37 2.18178e-36 0)
(2.83182e-37 3.09827e-37 0)
(3.86032e-38 4.6775e-38 0)
(5.85892e-39 4.83818e-39 0)
(5.92065e-40 4.75394e-40 0)
(-2.34348e-40 -3.81717e-40 0)
(-2.4995e-39 -3.48615e-39 0)
(-1.26603e-38 -2.93944e-38 0)
(-7.58701e-38 -1.52897e-37 0)
(2.08701e-39 -9.43239e-37 0)
(8.51849e-38 -1.10549e-37 0)
(4.9116e-39 -1.16511e-38 0)
(3.64751e-38 -4.81109e-38 0)
(6.31271e-38 -3.06077e-37 0)
(1.99431e-37 -2.2465e-37 0)
(1.67933e-37 5.84424e-37 0)
(-1.66819e-37 5.83647e-37 0)
(-1.93043e-37 -2.32745e-37 0)
(-2.14247e-38 -3.59262e-37 0)
(6.40047e-38 -3.99272e-37 0)
(2.63343e-37 -5.45351e-37 0)
(4.08729e-37 3.0426e-37 0)
(1.05374e-37 8.0894e-37 0)
(-6.23468e-38 -2.24487e-37 0)
(2.10276e-37 -5.29549e-37 0)
(2.05733e-37 2.32834e-37 0)
(6.40047e-38 3.05978e-37 0)
(3.61856e-38 4.67456e-38 0)
(5.40784e-39 7.45624e-39 0)
(8.88341e-40 8.10464e-40 0)
(9.95177e-41 8.95096e-41 0)
(1.13346e-41 8.21331e-42 0)
(1.06484e-42 7.47604e-43 0)
(9.88644e-44 6.06705e-44 0)
(8.80504e-45 4.46999e-45 0)
(8.84684e-45 -4.4952e-45 0)
(9.94706e-44 -6.09994e-44 0)
(1.07232e-42 -7.52072e-43 0)
(1.14252e-41 -8.26913e-42 0)
(1.00482e-40 -9.01959e-41 0)
(8.98594e-40 -8.1792e-40 0)
(5.49583e-39 -7.53741e-39 0)
(3.69723e-38 -4.74651e-38 0)
(6.85015e-38 -3.12607e-37 0)
(2.36311e-37 -2.71944e-37 0)
(2.36311e-37 2.71944e-37 0)
(6.85015e-38 3.12607e-37 0)
(3.6972e-38 4.74648e-38 0)
(5.49273e-39 7.5348e-39 0)
(8.66742e-40 7.8689e-40 0)
(-2.24049e-40 -2.32839e-40 0)
(-2.62871e-39 -3.33157e-39 0)
(-2.21633e-38 -2.76833e-38 0)
(-1.14225e-37 -2.3771e-37 0)
(-6.98945e-37 -1.26999e-36 0)
(1.59095e-38 -7.98681e-36 0)
(7.73644e-37 -9.33319e-37 0)
(-7.88639e-39 -4.80279e-38 0)
(7.79023e-39 -2.04118e-38 0)
(5.95631e-39 -5.26135e-38 0)
(5.61649e-39 -3.31252e-38 0)
(3.74741e-39 8.31024e-38 0)
(-3.4601e-39 8.31956e-38 0)
(-4.07249e-39 -3.2975e-38 0)
(4.46209e-43 -5.15573e-38 0)
(5.00377e-39 -5.74181e-38 0)
(9.8667e-39 -7.76392e-38 0)
(1.3347e-38 4.33659e-38 0)
(9.84806e-39 1.15038e-37 0)
(6.24877e-39 -3.16844e-38 0)
(8.59972e-39 -7.51792e-38 0)
(5.66427e-39 3.29863e-38 0)
(5.00374e-39 4.36425e-38 0)
(4.20256e-39 6.90414e-39 0)
(6.72061e-40 1.15835e-39 0)
(1.16004e-40 1.30279e-40 0)
(1.3433e-41 1.4834e-41 0)
(1.56634e-42 1.39212e-42 0)
(1.50109e-43 1.29019e-43 0)
(1.41348e-44 1.06204e-44 0)
(1.27607e-45 7.90601e-46 0)
(1.28223e-45 -7.95134e-46 0)
(1.42233e-44 -1.06791e-44 0)
(1.51192e-43 -1.29809e-43 0)
(1.57927e-42 -1.40188e-42 0)
(1.35688e-41 -1.49523e-41 0)
(1.17417e-40 -1.3154e-40 0)
(6.839e-40 -1.17177e-39 0)
(4.30483e-39 -7.01932e-39 0)
(5.55665e-39 -4.46678e-38 0)
(9.16779e-39 -3.87024e-38 0)
(9.16778e-39 3.87024e-38 0)
(5.55649e-39 4.46677e-38 0)
(4.30283e-39 7.01781e-39 0)
(6.60232e-40 1.15323e-39 0)
(-1.28607e-40 -9.1124e-41 0)
(-2.52557e-39 -2.33276e-39 0)
(-2.09759e-38 -2.472e-38 0)
(-1.79467e-37 -2.09246e-37 0)
(-9.49275e-37 -1.84837e-36 0)
(-5.92512e-36 -1.02341e-35 0)
(1.00394e-37 -6.64173e-35 0)
(6.4407e-36 -7.67514e-36 0)
(-7.1624e-38 -3.95043e-37 0)
(3.43547e-38 -1.12346e-37 0)
(1.04308e-38 -8.09011e-38 0)
(6.24931e-39 -1.55727e-38 0)
(5.08241e-40 8.2059e-39 0)
(7.82268e-40 9.96299e-39 0)
(7.10716e-40 -4.03383e-39 0)
(1.70028e-40 -6.36185e-39 0)
(4.16369e-40 -7.0999e-39 0)
(-1.76676e-40 -9.49097e-39 0)
(-6.01908e-40 5.31209e-39 0)
(9.79483e-40 1.40484e-38 0)
(1.55714e-39 -3.83696e-39 0)
(5.3921e-42 -9.16652e-39 0)
(-4.95489e-40 4.00895e-39 0)
(4.16112e-40 5.34965e-39 0)
(4.86171e-40 8.77274e-40 0)
(8.10947e-41 1.52482e-40 0)
(1.45317e-41 1.76664e-41 0)
(1.7227e-42 2.05697e-42 0)
(2.04717e-43 1.96878e-43 0)
(1.99126e-44 1.85049e-44 0)
(1.89652e-45 1.54311e-45 0)
(1.72967e-46 1.15864e-46 0)
(1.73812e-46 -1.16539e-46 0)
(1.90859e-45 -1.5518e-45 0)
(2.00592e-44 -1.86207e-44 0)
(2.06451e-43 -1.98295e-43 0)
(1.7407e-42 -2.07391e-42 0)
(1.47162e-41 -1.78445e-41 0)
(8.26089e-41 -1.54339e-40 0)
(4.9894e-40 -8.92846e-40 0)
(4.82263e-40 -5.48407e-39 0)
(-9.38792e-41 -4.72962e-39 0)
(-9.39597e-41 4.72957e-39 0)
(4.81103e-40 5.4834e-39 0)
(4.84739e-40 8.83777e-40 0)
(-8.77173e-41 4.22759e-41 0)
(-1.77812e-39 -1.34425e-39 0)
(-1.88356e-38 -1.45767e-38 0)
(-1.58768e-37 -1.56618e-37 0)
(-1.39545e-36 -1.36301e-36 0)
(-7.62989e-36 -1.24418e-35 0)
(-4.92003e-35 -7.25942e-35 0)
(5.25778e-37 -4.8366e-34 0)
(5.24511e-35 -5.59829e-35 0)
(-5.40624e-37 -2.99296e-36 0)
(3.43101e-37 -8.77322e-37 0)
(9.18691e-38 -6.1592e-37 0)
(5.73333e-38 -9.35827e-38 0)
(8.74796e-39 -1.4291e-38 0)
(1.62762e-39 -5.25359e-40 0)
(3.04957e-40 -6.76282e-40 0)
(4.72251e-41 -7.82171e-40 0)
(3.85661e-41 -8.55202e-40 0)
(-8.2494e-41 -1.13306e-39 0)
(-1.67065e-40 6.34595e-40 0)
(9.76552e-41 1.6756e-39 0)
(2.07111e-40 -4.5515e-40 0)
(-4.61439e-41 -1.092e-39 0)
(-1.08388e-40 4.76867e-40 0)
(3.66016e-41 6.39446e-40 0)
(5.24724e-41 1.07299e-40 0)
(9.03476e-42 1.92031e-41 0)
(1.66098e-42 2.27325e-42 0)
(2.00823e-43 2.69574e-43 0)
(2.42138e-44 2.61842e-44 0)
(2.38605e-45 2.48927e-45 0)
(2.29373e-46 2.09597e-46 0)
(2.11116e-47 1.58438e-47 0)
(2.12159e-47 -1.59371e-47 0)
(2.30855e-46 -2.10792e-46 0)
(2.40392e-45 -2.50511e-45 0)
(2.44233e-44 -2.63766e-44 0)
(2.02977e-43 -2.71851e-43 0)
(1.68277e-42 -2.29691e-42 0)
(9.2109e-42 -1.94461e-41 0)
(5.39276e-41 -1.09298e-40 0)
(4.39242e-41 -6.56324e-40 0)
(-6.5391e-41 -5.6444e-40 0)
(-6.58724e-41 5.64156e-40 0)
(3.69384e-41 6.52612e-40 0)
(-3.23348e-41 5.86762e-41 0)
(-1.03792e-39 -6.13982e-40 0)
(-1.11817e-38 -7.83913e-39 0)
(-1.19741e-37 -8.5627e-38 0)
(-1.03478e-36 -9.48414e-37 0)
(-9.35987e-36 -8.56976e-36 0)
(-5.34969e-35 -8.25141e-35 0)
(-3.54818e-34 -5.16589e-34 0)
(1.04266e-36 -3.63993e-33 0)
(3.67408e-34 -4.12197e-34 0)
(-3.0659e-36 -2.24416e-35 0)
(3.60274e-36 -6.17425e-36 0)
(8.69244e-37 -4.29722e-36 0)
(4.77444e-37 -6.33372e-37 0)
(7.06137e-38 -1.01306e-37 0)
(1.17412e-38 -1.09653e-38 0)
(1.336e-39 -1.29326e-39 0)
(1.54907e-40 -1.99029e-40 0)
(1.77794e-41 -1.0473e-40 0)
(-1.0256e-41 -1.24951e-40 0)
(-2.20519e-41 6.95231e-41 0)
(9.89704e-42 1.8339e-40 0)
(2.35105e-41 -4.95363e-41 0)
(-6.93638e-42 -1.19391e-40 0)
(-1.38716e-41 5.20319e-41 0)
(3.45103e-42 7.01581e-41 0)
(5.51776e-42 1.20404e-41 0)
(9.69854e-43 2.20194e-42 0)
(1.81731e-43 2.65603e-43 0)
(2.22959e-44 3.19466e-44 0)
(2.71914e-45 3.14343e-45 0)
(2.70629e-46 3.01622e-46 0)
(2.62067e-47 2.56186e-47 0)
(2.42901e-48 1.94762e-48 0)
(2.44111e-48 -1.95921e-48 0)
(2.63778e-47 -2.57664e-47 0)
(2.72684e-46 -3.03569e-46 0)
(2.74305e-45 -3.16693e-45 0)
(2.25397e-44 -3.22223e-44 0)
(1.84171e-43 -2.68441e-43 0)
(9.89321e-43 -2.23071e-42 0)
(5.67574e-42 -1.22738e-41 0)
(4.21975e-42 -7.20926e-41 0)
(-9.57556e-42 -6.18744e-41 0)
(-1.2252e-41 6.0787e-41 0)
(-3.50677e-41 5.77725e-41 0)
(-4.85599e-40 -1.85039e-40 0)
(-6.07054e-39 -2.49922e-39 0)
(-6.60892e-38 -3.15218e-38 0)
(-7.27527e-37 -3.53168e-37 0)
(-6.48391e-36 -4.05775e-36 0)
(-6.12668e-35 -3.90176e-35 0)
(-3.68711e-34 -4.04311e-34 0)
(-2.59821e-33 -2.87324e-33 0)
(-6.83171e-36 -2.09826e-32 0)
(2.61533e-33 -2.41528e-33 0)
(-7.94418e-36 -1.40906e-34 0)
(4.17001e-35 -4.23669e-35 0)
(8.20404e-36 -3.12143e-35 0)
(3.45201e-36 -4.37735e-36 0)
(4.82436e-37 -6.73163e-37 0)
(7.63163e-38 -7.07937e-38 0)
(8.35138e-39 -7.70948e-39 0)
(9.38801e-40 -7.04032e-40 0)
(8.75401e-41 -7.27425e-41 0)
(6.78197e-42 -1.81487e-41 0)
(-1.7104e-42 6.95719e-42 0)
(1.017e-42 1.93296e-41 0)
(2.39728e-42 -5.20911e-42 0)
(-7.64074e-43 -1.25921e-41 0)
(-1.46831e-42 5.48017e-42 0)
(3.24652e-43 7.41862e-42 0)
(5.46858e-43 1.29404e-42 0)
(9.78284e-44 2.40538e-43 0)
(1.85915e-44 2.94174e-44 0)
(2.31034e-45 3.57598e-45 0)
(2.84346e-46 3.55228e-46 0)
(2.85521e-47 3.43167e-47 0)
(2.78175e-48 2.93304e-48 0)
(2.59458e-49 2.23865e-49 0)
(2.60753e-49 -2.25208e-49 0)
(2.79997e-48 -2.95012e-48 0)
(2.8769e-47 -3.45411e-47 0)
(2.8684e-46 -3.57928e-46 0)
(2.3353e-45 -3.60752e-45 0)
(1.88335e-44 -2.97413e-44 0)
(9.96289e-44 -2.43812e-43 0)
(5.59542e-43 -1.32081e-42 0)
(3.49111e-43 -7.64519e-42 0)
(-1.83433e-42 -6.77642e-42 0)
(-1.24039e-41 2.73964e-42 0)
(-1.5637e-40 -4.62147e-41 0)
(-1.98537e-39 -7.54643e-40 0)
(-2.49607e-38 -9.75281e-39 0)
(-2.77817e-37 -1.26634e-37 0)
(-3.14253e-36 -1.46679e-36 0)
(-2.91345e-35 -1.79453e-35 0)
(-2.87144e-34 -1.87737e-34 0)
(-1.8549e-33 -2.20464e-33 0)
(-1.36619e-32 -1.82694e-32 0)
(-1.06022e-34 -1.50848e-31 0)
(1.27788e-32 -1.62281e-32 0)
(-3.71975e-36 -1.08253e-36 0)
(-4.32823e-35 -8.65802e-36 0)
(-2.40118e-34 -8.66774e-35 0)
(-3.22809e-33 -7.13871e-35 0)
(-3.02797e-33 1.67985e-34 0)
(3.02797e-33 1.67985e-34 0)
(3.22809e-33 -7.13871e-35 0)
(2.40119e-34 -8.66772e-35 0)
(4.33073e-35 -8.6605e-36 0)
(3.71694e-36 -1.15072e-36 0)
(4.41507e-37 -9.88841e-38 0)
(3.6453e-38 -9.70249e-39 0)
(-1.13588e-43 -1.51254e-39 0)
(-3.64546e-38 -9.70281e-39 0)
(-4.41529e-37 -9.88887e-38 0)
(-3.71721e-36 -1.15078e-36 0)
(-4.33108e-35 -8.66126e-36 0)
(-2.40156e-34 -8.66869e-35 0)
(-3.22854e-33 -7.14867e-35 0)
(-3.03173e-33 1.66824e-34 0)
(2.98422e-33 1.59225e-34 0)
(2.98422e-33 -1.59225e-34 0)
(-3.03173e-33 -1.66824e-34 0)
(-3.22854e-33 7.14867e-35 0)
(-2.40156e-34 8.66869e-35 0)
(-4.33108e-35 8.66125e-36 0)
(-3.71748e-36 1.15072e-36 0)
(-4.45054e-37 9.81237e-38 0)
(-7.36953e-38 -5.78668e-41 0)
(-4.48245e-37 -9.88214e-38 0)
(-3.7507e-36 -1.1596e-36 0)
(-4.37153e-35 -8.75043e-36 0)
(-2.43428e-34 -8.7738e-35 0)
(-3.26809e-33 -7.89868e-35 0)
(-3.22809e-33 8.89074e-35 0)
(-2.15475e-40 1.75675e-34 0)
(3.22809e-33 8.89068e-35 0)
(3.26806e-33 -7.89939e-35 0)
(2.42994e-34 -8.7752e-35 0)
(4.14814e-35 -8.03141e-36 0)
(-8.6865e-37 4.97374e-37 0)
(-9.0591e-36 4.49637e-36 0)
(-5.14408e-35 4.50334e-35 0)
(-4.66344e-34 3.7054e-35 0)
(-4.23177e-34 -8.7216e-35 0)
(4.23177e-34 -8.7216e-35 0)
(4.66344e-34 3.7054e-35 0)
(5.14411e-35 4.50334e-35 0)
(9.0665e-36 4.49926e-36 0)
(8.90023e-37 5.76e-37 0)
(1.0613e-37 4.84307e-38 0)
(9.32701e-39 4.61586e-39 0)
(-3.1744e-44 7.05377e-40 0)
(-9.32744e-39 4.61601e-39 0)
(-1.06136e-37 4.84327e-38 0)
(-8.90096e-37 5.76029e-37 0)
(-9.06741e-36 4.49961e-36 0)
(-5.14505e-35 4.5038e-35 0)
(-4.66451e-34 3.71028e-35 0)
(-4.24076e-34 -8.66354e-35 0)
(4.14003e-34 -8.2668e-35 0)
(4.14003e-34 8.2668e-35 0)
(-4.24076e-34 8.66354e-35 0)
(-4.66451e-34 -3.71028e-35 0)
(-5.14505e-35 -4.5038e-35 0)
(-9.06742e-36 -4.49961e-36 0)
(-8.90169e-37 -5.76e-37 0)
(-1.07048e-37 -4.80761e-38 0)
(-1.88653e-38 2.64911e-41 0)
(-1.0787e-37 4.8402e-38 0)
(-8.98662e-37 5.80233e-37 0)
(-9.16408e-36 4.54342e-36 0)
(-5.22335e-35 4.55652e-35 0)
(-4.74618e-34 4.10214e-35 0)
(-4.66344e-34 -4.61501e-35 0)
(-6.54216e-41 -9.12279e-35 0)
(4.66343e-34 -4.61499e-35 0)
(4.74609e-34 4.10238e-35 0)
(5.21175e-35 4.55438e-35 0)
(8.49146e-36 3.54702e-36 0)
(-1.95401e-37 1.182e-37 0)
(-1.70703e-36 1.05041e-36 0)
(-6.65729e-36 8.66134e-36 0)
(-4.64257e-35 6.8012e-36 0)
(-4.13091e-35 -1.66655e-35 0)
(4.13091e-35 -1.66655e-35 0)
(4.64257e-35 6.8012e-36 0)
(6.65726e-36 8.66131e-36 0)
(1.70766e-36 1.05104e-36 0)
(1.9063e-37 1.38113e-37 0)
(2.57589e-38 1.2503e-38 0)
(2.41074e-39 1.21012e-39 0)
(-9.63795e-45 1.92372e-40 0)
(-2.41087e-39 1.21017e-39 0)
(-2.57606e-38 1.25036e-38 0)
(-1.9065e-37 1.38121e-37 0)
(-1.70791e-36 1.05114e-36 0)
(-6.65971e-36 8.66252e-36 0)
(-4.64517e-35 6.8138e-36 0)
(-4.15021e-35 -1.65262e-35 0)
(3.95754e-35 -1.56018e-35 0)
(3.95754e-35 1.56018e-35 0)
(-4.15021e-35 1.65262e-35 0)
(-4.64517e-35 -6.8138e-36 0)
(-6.65971e-36 -8.66252e-36 0)
(-1.70791e-36 -1.05114e-36 0)
(-1.90671e-37 -1.38113e-37 0)
(-2.60103e-38 -1.24063e-38 0)
(-4.88134e-39 7.30249e-42 0)
(-2.62344e-38 1.24951e-38 0)
(-1.92854e-37 1.39218e-37 0)
(-1.73122e-36 1.06243e-36 0)
(-6.82434e-36 8.78804e-36 0)
(-4.79663e-35 7.72552e-36 0)
(-4.64257e-35 -8.92848e-36 0)
(-8.86625e-42 -1.76013e-35 0)
(4.64256e-35 -8.92841e-36 0)
(4.79656e-35 7.72623e-36 0)
(6.81451e-36 8.78359e-36 0)
(1.67564e-36 8.28536e-37 0)
(-2.95756e-38 2.94071e-38 0)
(-2.25266e-37 2.3902e-37 0)
(-6.33824e-37 1.85334e-36 0)
(-3.50944e-36 1.43484e-36 0)
(-3.0765e-36 -3.56562e-36 0)
(3.0765e-36 -3.56562e-36 0)
(3.50944e-36 1.43484e-36 0)
(6.3381e-37 1.85334e-36 0)
(2.25265e-37 2.39257e-37 0)
(2.81245e-38 3.45103e-38 0)
(4.09554e-39 3.30314e-39 0)
(4.03892e-40 3.37988e-40 0)
(-1.80907e-45 5.5682e-41 0)
(-4.03916e-40 3.38001e-40 0)
(-4.09586e-39 3.30332e-39 0)
(-2.81281e-38 3.45126e-38 0)
(-2.25308e-37 2.39285e-37 0)
(-6.34222e-37 1.85368e-36 0)
(-3.51358e-36 1.43817e-36 0)
(-3.10503e-36 -3.53077e-36 0)
(2.84709e-36 -3.32303e-36 0)
(2.84709e-36 3.32303e-36 0)
(-3.10503e-36 3.53077e-36 0)
(-3.51358e-36 -1.43817e-36 0)
(-6.34222e-37 -1.85368e-36 0)
(-2.25308e-37 -2.39285e-37 0)
(-2.81318e-38 -3.45103e-38 0)
(-4.13914e-39 -3.27514e-39 0)
(-8.18463e-40 2.17756e-42 0)
(-4.17785e-39 3.30077e-39 0)
(-2.84964e-38 3.48179e-38 0)
(-2.28993e-37 2.4225e-37 0)
(-6.58207e-37 1.88486e-36 0)
(-3.71031e-36 1.64258e-36 0)
(-3.50944e-36 -1.92002e-36 0)
(-7.68745e-43 -3.77638e-36 0)
(3.50943e-36 -1.92001e-36 0)
(3.71031e-36 1.64264e-36 0)
(6.58165e-37 1.88303e-36 0)
(2.28133e-37 1.86048e-37 0)
(-4.37591e-39 4.70672e-39 0)
(-2.95879e-38 3.66034e-38 0)
(-5.3124e-38 2.65284e-37 0)
(-1.9025e-37 2.01597e-37 0)
(-1.63255e-37 -5.0972e-37 0)
(1.63255e-37 -5.0972e-37 0)
(1.9025e-37 2.01598e-37 0)
(5.31202e-38 2.65285e-37 0)
(2.95686e-38 3.66495e-38 0)
(4.01389e-39 5.56513e-39 0)
(6.29533e-40 5.58542e-40 0)
(6.45193e-41 5.89822e-41 0)
(-3.18479e-46 1.00072e-41 0)
(-6.45235e-41 5.89847e-41 0)
(-6.29588e-40 5.58575e-40 0)
(-4.01451e-39 5.56556e-39 0)
(-2.95757e-38 3.66546e-38 0)
(-5.31859e-38 2.65344e-37 0)
(-1.90886e-37 2.02161e-37 0)
(-1.67335e-37 -5.04095e-37 0)
(1.3305e-37 -4.72506e-37 0)
(1.3305e-37 4.72506e-37 0)
(-1.67335e-37 5.04095e-37 0)
(-1.90886e-37 -2.02161e-37 0)
(-5.31859e-38 -2.65344e-37 0)
(-2.95758e-38 -3.66545e-38 0)
(-4.01513e-39 -5.56513e-39 0)
(-6.36735e-40 -5.53508e-40 0)
(-1.3084e-40 3.98286e-43 0)
(-6.43107e-40 5.58108e-40 0)
(-4.07317e-39 5.61864e-39 0)
(-3.01396e-38 3.71541e-38 0)
(-5.65631e-38 2.70345e-37 0)
(-2.16375e-37 2.33187e-37 0)
(-1.9025e-37 -2.76024e-37 0)
(3.37682e-44 -5.41818e-37 0)
(1.90251e-37 -2.76023e-37 0)
(2.16398e-37 2.33185e-37 0)
(5.67968e-38 2.69977e-37 0)
(3.12235e-38 2.81462e-38 0)
(-5.5838e-40 7.30088e-40 0)
(-3.45767e-39 5.40749e-39 0)
(-4.16669e-39 3.78662e-38 0)
(-5.46444e-39 2.85217e-38 0)
(-4.32598e-39 -7.27723e-38 0)
(4.32598e-39 -7.27723e-38 0)
(5.4644e-39 2.85217e-38 0)
(4.16607e-39 3.78666e-38 0)
(3.45338e-39 5.41698e-39 0)
(5.00219e-40 8.6642e-40 0)
(8.23826e-41 8.99413e-41 0)
(8.71863e-42 9.79455e-42 0)
(-4.65534e-47 1.69843e-42 0)
(-8.71924e-42 9.79498e-42 0)
(-8.23903e-41 8.99471e-41 0)
(-5.00306e-40 8.66495e-40 0)
(-3.45436e-39 5.41784e-39 0)
(-4.17496e-39 3.78764e-38 0)
(-5.54777e-39 2.86125e-38 0)
(-4.83509e-39 -7.18961e-38 0)
(7.89223e-40 -6.72646e-38 0)
(7.89223e-40 6.72646e-38 0)
(-4.83509e-39 7.18961e-38 0)
(-5.54777e-39 -2.86125e-38 0)
(-4.17496e-39 -3.78764e-38 0)
(-3.45437e-39 -5.41783e-39 0)
(-5.00394e-40 -8.6642e-40 0)
(-8.33795e-41 -8.90868e-41 0)
(-1.76914e-41 6.87257e-44 0)
(-8.42591e-41 8.98664e-41 0)
(-5.08217e-40 8.75285e-40 0)
(-3.52787e-39 5.49797e-39 0)
(-4.59181e-39 3.8652e-38 0)
(-8.49204e-39 3.31533e-38 0)
(-5.4644e-39 -3.95373e-38 0)
(2.02734e-44 -7.74857e-38 0)
(5.46472e-39 -3.95374e-38 0)
(8.49684e-39 3.31508e-38 0)
(4.64163e-39 3.85809e-38 0)
(3.75883e-39 4.10209e-39 0)
(-6.17098e-41 1.01731e-40 0)
(-4.02136e-40 6.79401e-40 0)
(-3.47001e-40 4.64405e-39 0)
(4.1952e-40 3.46268e-39 0)
(4.17168e-40 -8.92463e-39 0)
(-4.1716e-40 -8.92462e-39 0)
(-4.19458e-40 3.4628e-39 0)
(3.47472e-40 4.6451e-39 0)
(4.00908e-40 6.88834e-40 0)
(6.0463e-41 1.14199e-40 0)
(1.03373e-41 1.2211e-41 0)
(1.11908e-42 1.35969e-42 0)
(-6.35373e-48 2.40378e-43 0)
(-1.11916e-42 1.35976e-42 0)
(-1.03384e-41 1.22119e-41 0)
(-6.04747e-41 1.1421e-40 0)
(-4.01036e-40 6.88955e-40 0)
(-3.48614e-40 4.64646e-39 0)
(4.08992e-40 3.47513e-39 0)
(3.55555e-40 -8.80906e-39 0)
(-8.28535e-40 -8.22345e-39 0)
(-8.28535e-40 8.22345e-39 0)
(3.55555e-40 8.80906e-39 0)
(4.08992e-40 -3.47513e-39 0)
(-3.48614e-40 -4.64646e-39 0)
(-4.01038e-40 -6.88954e-40 0)
(-6.04863e-41 -1.14199e-40 0)
(-1.04678e-41 -1.20901e-41 0)
(-2.27188e-42 9.84989e-45 0)
(-1.05827e-41 1.22003e-41 0)
(-6.14884e-41 1.15427e-40 0)
(-4.10234e-40 6.99805e-40 0)
(-3.9861e-40 4.74832e-39 0)
(6.96889e-41 4.04841e-39 0)
(4.19459e-40 -4.86513e-39 0)
(4.58275e-45 -9.52131e-39 0)
(-4.19394e-40 -4.86516e-39 0)
(-6.88793e-41 4.04784e-39 0)
(4.06762e-40 4.73755e-39 0)
(4.47696e-40 5.16049e-40 0)
(1.52198e-40 1.98575e-40 0)
(-3.18258e-41 -3.79909e-42 0)
(-2.381e-41 5.45327e-40 0)
(9.64198e-41 4.10406e-40 0)
(8.87047e-41 -1.06752e-39 0)
(-8.86158e-41 -1.06745e-39 0)
(-9.5673e-41 4.11469e-40 0)
(3.0627e-41 5.55508e-40 0)
(4.33568e-41 8.42952e-41 0)
(6.74376e-42 1.43989e-41 0)
(1.18277e-42 1.57286e-42 0)
(1.30529e-43 1.7839e-43 0)
(-7.79882e-49 3.19932e-44 0)
(-1.30539e-43 1.78399e-43 0)
(-1.1829e-42 1.57297e-42 0)
(-6.74515e-42 1.44004e-41 0)
(-4.3372e-41 8.43113e-41 0)
(-3.07602e-41 5.55687e-40 0)
(9.44754e-41 4.13059e-40 0)
(8.17456e-41 -1.05286e-39 0)
(-1.33178e-40 -9.81556e-40 0)
(-1.33178e-40 9.81556e-40 0)
(8.17456e-41 1.05286e-39 0)
(9.44754e-41 -4.13059e-40 0)
(-3.07602e-41 -5.55687e-40 0)
(-4.33721e-41 -8.43112e-41 0)
(-6.74655e-42 -1.43989e-41 0)
(-1.19822e-42 -1.55676e-42 0)
(-2.651e-43 1.32457e-45 0)
(-1.2118e-42 1.57141e-42 0)
(-6.86324e-42 1.45598e-41 0)
(-4.44217e-41 8.57055e-41 0)
(-3.63059e-41 5.68497e-40 0)
(5.79957e-41 4.82777e-40 0)
(9.56736e-41 -5.83238e-40 0)
(7.20828e-46 -1.14017e-39 0)
(-9.5664e-41 -5.83244e-40 0)
(-5.78855e-41 4.82676e-40 0)
(3.7383e-41 5.66976e-40 0)
(4.93177e-41 6.25428e-41 0)
(4.13847e-39 -4.0192e-40 0)
(2.42118e-40 -7.59856e-40 0)
(8.06183e-41 -2.35595e-41 0)
(2.03941e-41 3.74074e-41 0)
(1.20673e-41 -1.1771e-40 0)
(-1.12173e-41 -1.17198e-40 0)
(-1.23401e-41 4.48564e-41 0)
(2.89069e-42 6.09778e-41 0)
(4.5643e-42 9.46394e-42 0)
(7.2443e-43 1.65235e-42 0)
(1.29509e-43 1.83905e-43 0)
(1.44977e-44 2.11554e-44 0)
(-8.99022e-50 3.84262e-45 0)
(-1.44988e-44 2.11564e-44 0)
(-1.29524e-43 1.83919e-43 0)
(-7.24587e-43 1.65252e-42 0)
(-4.56599e-42 9.46589e-42 0)
(-2.90519e-42 6.09991e-41 0)
(1.22135e-41 4.50447e-41 0)
(1.05396e-41 -1.15487e-40 0)
(-1.59743e-41 -1.0751e-40 0)
(-1.59743e-41 1.0751e-40 0)
(1.05396e-41 1.15487e-40 0)
(1.22135e-41 -4.50447e-41 0)
(-2.90519e-42 -6.09991e-41 0)
(-4.56601e-42 -9.46587e-42 0)
(-7.24746e-43 -1.65234e-42 0)
(-1.31246e-43 -1.81971e-43 0)
(-2.9454e-44 1.60408e-46 0)
(-1.32769e-43 1.8373e-43 0)
(-7.3769e-43 1.67139e-42 0)
(-4.68072e-42 9.62861e-42 0)
(-3.49839e-42 6.24656e-41 0)
(8.38842e-42 5.28352e-41 0)
(1.23447e-41 -6.41585e-41 0)
(9.88481e-47 -1.25303e-40 0)
(-1.23434e-41 -6.41595e-41 0)
(-8.37476e-42 5.2821e-41 0)
(3.62877e-42 6.2276e-41 0)
(5.2696e-42 6.9706e-42 0)
(8.83213e-38 3.07792e-38 0)
(8.15237e-39 -6.94975e-39 0)
(8.84825e-40 -7.49727e-40 0)
(7.27202e-41 -5.1357e-41 0)
(6.8883e-42 -1.62629e-41 0)
(-7.83627e-43 -1.26375e-41 0)
(-1.28335e-42 4.70628e-42 0)
(2.73821e-43 6.44928e-42 0)
(4.52797e-43 1.01748e-42 0)
(7.31191e-44 1.80605e-43 0)
(1.32563e-44 2.03799e-44 0)
(1.50274e-45 2.36928e-45 0)
(-8.53806e-51 4.34392e-46 0)
(-1.50284e-45 2.36942e-45 0)
(-1.32575e-44 2.03817e-44 0)
(-7.3129e-44 1.80628e-43 0)
(-4.52863e-43 1.01775e-42 0)
(-2.73538e-43 6.45253e-42 0)
(1.29798e-42 4.74203e-42 0)
(1.1173e-42 -1.22097e-41 0)
(-1.65806e-42 -1.13546e-41 0)
(-1.65806e-42 1.13546e-41 0)
(1.1173e-42 1.22097e-41 0)
(1.29798e-42 -4.74203e-42 0)
(-2.73539e-43 -6.45253e-42 0)
(-4.52864e-43 -1.01775e-42 0)
(-7.31458e-44 -1.80608e-43 0)
(-1.34377e-44 -2.01614e-44 0)
(-3.05384e-45 1.82427e-47 0)
(-1.35968e-44 2.03601e-44 0)
(-7.44862e-44 1.82738e-43 0)
(-4.64586e-43 1.03576e-42 0)
(-3.33215e-43 6.61254e-42 0)
(9.19942e-43 5.57658e-42 0)
(1.31141e-42 -6.79769e-42 0)
(1.18851e-47 -1.32663e-41 0)
(-1.31127e-42 -6.79783e-42 0)
(-9.18415e-43 5.57477e-42 0)
(3.47453e-43 6.59038e-42 0)
(5.28517e-43 7.45242e-43 0)
(1.8261e-34 -1.13381e-33 0)
(5.42961e-34 -2.68195e-34 0)
(9.26837e-35 -1.8338e-34 0)
(3.09604e-35 -2.45699e-35 0)
(3.97273e-36 -3.51946e-36 0)
(5.9552e-37 -3.55162e-37 0)
(6.24393e-38 -3.71261e-38 0)
(6.83577e-39 -3.26576e-39 0)
(6.19607e-40 -2.8913e-40 0)
(5.61353e-41 -2.3781e-41 0)
(4.36437e-42 -1.25673e-42 0)
(4.26738e-43 1.25832e-42 0)
(1.95591e-43 -3.80757e-43 0)
(-5.38329e-44 -9.02106e-43 0)
(-1.05386e-43 3.92008e-43 0)
(2.21482e-44 5.32421e-43 0)
(3.82655e-44 9.43792e-44 0)
(6.92252e-45 1.79401e-44 0)
(1.32775e-45 2.2304e-45 0)
(1.66364e-46 2.75479e-46 0)
(2.05913e-47 2.7724e-47 0)
(2.07882e-48 2.70891e-48 0)
(2.0321e-49 2.33811e-49 0)
(1.90159e-50 1.79828e-50 0)
(1.90851e-50 -1.80915e-50 0)
(2.04014e-49 -2.3518e-49 0)
(2.08463e-48 -2.72668e-48 0)
(2.05875e-47 -2.79343e-47 0)
(1.6487e-46 -2.7788e-46 0)
(1.28777e-45 -2.25413e-45 0)
(6.09371e-45 -1.81661e-44 0)
(2.35666e-44 -9.59805e-44 0)
(-2.17832e-43 -5.42536e-43 0)
(-3.79932e-42 -3.83901e-43 0)
(-5.3122e-41 1.70395e-42 0)
(-7.45362e-40 1.76087e-41 0)
(-9.61994e-39 2.26144e-40 0)
(-1.24367e-37 2.63539e-39 0)
(-1.4208e-36 2.53353e-38 0)
(-1.67814e-35 4.35339e-38 0)
(-1.61794e-34 -5.90571e-36 0)
(-1.71609e-33 -2.11924e-34 0)
(-1.18218e-32 -4.58997e-33 0)
(-1.01982e-31 -6.93652e-32 0)
(4.04142e-34 -5.95294e-31 0)
(1.02226e-31 -6.94542e-32 0)
(6.39062e-33 -6.97444e-33 0)
(1.04867e-32 -2.26174e-33 0)
(1.35216e-33 -1.77778e-33 0)
(2.73896e-34 -2.09234e-34 0)
(3.06752e-35 -2.90325e-35 0)
(4.02407e-36 -2.77314e-36 0)
(3.96671e-37 -2.84101e-37 0)
(4.11249e-38 -2.42376e-38 0)
(3.61072e-39 -2.11014e-39 0)
(3.18884e-40 -1.63929e-40 0)
(2.52558e-41 -1.26254e-41 0)
(1.9784e-42 -8.13368e-43 0)
(1.5239e-43 -8.71541e-44 0)
(6.94315e-45 -6.22397e-44 0)
(-5.30312e-45 2.49487e-44 0)
(1.27448e-45 3.43365e-44 0)
(2.15521e-45 6.14921e-45 0)
(3.94238e-46 1.17443e-45 0)
(7.66127e-47 1.46951e-46 0)
(9.70176e-48 1.81928e-47 0)
(1.21212e-48 1.83715e-48 0)
(1.23371e-49 1.79634e-49 0)
(1.21397e-50 1.5525e-50 0)
(1.1437e-51 1.19375e-51 0)
(1.15908e-51 -1.19614e-51 0)
(1.2416e-50 -1.55244e-50 0)
(1.27994e-49 -1.79036e-49 0)
(1.28995e-48 -1.81762e-48 0)
(1.09912e-47 -1.77367e-47 0)
(9.79313e-47 -1.37603e-46 0)
(7.36839e-46 -1.00051e-45 0)
(7.58831e-45 -3.11608e-45 0)
(8.38891e-44 1.58374e-44 0)
(1.22479e-42 7.60691e-43 0)
(1.73177e-41 1.19445e-41 0)
(2.38396e-40 1.68747e-40 0)
(3.04223e-39 2.32425e-39 0)
(3.82477e-38 2.8702e-38 0)
(4.31674e-37 3.19629e-37 0)
(4.89875e-36 1.96424e-36 0)
(4.66434e-35 -2.51677e-35 0)
(4.64818e-34 -1.52971e-33 0)
(3.17993e-33 -3.88689e-32 0)
(2.43509e-32 -7.10664e-31 0)
(9.92309e-33 -8.78812e-30 0)
(-1.31507e-32 -7.1296e-31 0)
(1.23439e-31 -7.65651e-32 0)
(1.42343e-31 -6.64395e-33 0)
(1.32554e-32 -3.88635e-34 0)
(2.60577e-33 -1.71087e-35 0)
(2.62169e-34 -4.91104e-37 0)
(3.36207e-35 -2.65554e-39 0)
(3.15148e-36 1.25996e-39 0)
(3.21123e-37 1.33944e-40 0)
(2.73914e-38 1.15011e-41 0)
(2.38714e-39 8.37529e-43 0)
(1.8561e-40 6.19643e-44 0)
(1.43552e-41 9.12328e-45 0)
(1.02523e-42 -1.11292e-45 0)
(7.16936e-44 -3.32666e-45 0)
(4.39903e-45 1.45118e-45 0)
(3.77142e-46 1.98143e-45 0)
(1.43573e-46 3.58808e-46 0)
(2.41415e-47 6.92506e-47 0)
(4.55675e-48 8.74829e-48 0)
(5.75439e-49 1.09123e-48 0)
(7.18066e-50 1.10974e-49 0)
(7.32113e-51 1.09076e-50 0)
(7.20839e-52 9.47337e-52 0)
(7.16783e-53 7.3049e-53 0)
(1.42654e-52 -7.38405e-53 0)
(2.16801e-51 -9.59538e-52 0)
(3.45254e-50 -1.11087e-50 0)
(5.70212e-49 -1.14259e-49 0)
(9.40422e-48 -1.14568e-48 0)
(1.56866e-46 -9.63941e-48 0)
(2.55139e-45 -8.39489e-47 0)
(4.09766e-44 -5.94771e-46 0)
(6.30183e-43 -5.75111e-45 0)
(9.47584e-42 -5.90614e-44 0)
(1.34494e-40 -8.64421e-43 0)
(1.86925e-39 -1.22281e-41 0)
(2.4064e-38 -1.67517e-40 0)
(3.0663e-37 -1.98908e-39 0)
(3.50083e-36 -1.92817e-38 0)
(4.05244e-35 3.7547e-39 0)
(3.92303e-34 6.30528e-36 0)
(4.04239e-33 2.28107e-34 0)
(2.84948e-32 5.29138e-33 0)
(2.35092e-31 9.18496e-32 0)
(1.4455e-31 1.09085e-30 0)
(-7.72165e-32 9.17195e-32 0)
(9.61931e-33 -7.51931e-32 0)
(8.83695e-33 -5.06994e-33 0)
(1.17551e-33 1.33444e-33 0)
(2.4515e-34 1.88897e-34 0)
(2.80205e-35 2.83451e-35 0)
(3.73677e-36 2.75866e-36 0)
(3.7247e-37 2.84494e-37 0)
(3.89588e-38 2.43095e-38 0)
(3.44308e-39 2.11687e-39 0)
(3.05722e-40 1.64376e-40 0)
(2.43261e-41 1.2696e-41 0)
(1.9081e-42 9.05479e-43 0)
(1.38472e-43 6.33509e-44 0)
(9.80955e-45 3.98955e-45 0)
(6.37586e-46 3.54366e-46 0)
(4.65524e-47 1.3232e-46 0)
(9.40089e-48 2.21089e-47 0)
(1.41602e-48 4.14421e-48 0)
(2.5591e-49 5.21929e-49 0)