/*--------------------------------*- C++ -*----------------------------------*\
| =========                 |                                                 |
| \\      /  F ield         | OpenFOAM: The Open Source CFD Toolbox           |
|  \\    /   O peration     | Version:  2.4.0                                 |
|   \\  /    A nd           | Web:      www.OpenFOAM.org                      |
|    \\/     M anipulation  |                                                 |
\*---------------------------------------------------------------------------*/
FoamFile
{
    version     2.0;
    format      ascii;
    class       volVectorField;
    location    "0.45";
    object      U;
}
// * * * * * * * * * * * * * * * * * * * * * * * * * * * * * * * * * * * * * //

dimensions      [0 1 -1 0 0 0 0];

internalField   nonuniform List<vector> 
1935
(
(7.35577e-35 1.51411e-39 0)
(8.30337e-36 -5.2545e-36 0)
(1.34087e-36 -6.59637e-37 0)
(1.58253e-37 -7.64833e-37 0)
(-6.18242e-37 -7.72123e-36 0)
(-5.23532e-35 -1.06721e-34 0)
(-1.73575e-33 -9.48579e-34 0)
(-4.18246e-32 -1.18528e-32 0)
(-6.69986e-31 -4.44481e-32 0)
(-4.07689e-32 -5.89986e-31 0)
(1.09701e-32 -2.95383e-30 0)
(-1.39719e-33 -4.82742e-29 0)
(-2.59596e-32 1.00296e-30 0)
(-8.27741e-34 4.93471e-29 0)
(1.29979e-32 3.03708e-30 0)
(1.08102e-33 6.15631e-31 0)
(-5.25259e-36 9.01621e-32 0)
(-1.06245e-33 6.35273e-31 0)
(-1.32622e-32 2.65304e-30 0)
(1.78527e-32 5.15031e-29 0)
(4.48763e-32 -6.19406e-29 0)
(-1.52392e-32 -1.17125e-28 0)
(-4.54796e-32 -4.89937e-30 0)
(1.61941e-32 5.35459e-29 0)
(4.63062e-32 -6.5335e-29 0)
(-3.1585e-32 -1.21683e-28 0)
(-3.32098e-32 5.48179e-29 0)
(1.11876e-32 1.36533e-30 0)
(-5.75072e-32 6.65459e-31 0)
(-9.4374e-31 -4.91243e-30 0)
(-6.02399e-32 -6.59857e-29 0)
(-1.98311e-32 -4.06798e-30 0)
(-1.52702e-33 -8.12994e-31 0)
(-1.69297e-34 -6.11797e-32 0)
(2.63769e-37 -1.45448e-32 0)
(1.74016e-34 -5.94048e-32 0)
(1.41333e-33 -8.30601e-31 0)
(1.74901e-32 -3.50276e-30 0)
(-2.33664e-32 -6.79018e-29 0)
(-5.91625e-32 8.10445e-29 0)
(1.84128e-32 1.54586e-28 0)
(4.10715e-32 1.01685e-29 0)
(3.32765e-33 2.06876e-30 0)
(7.47539e-34 -1.64929e-39 0)
(8.02041e-33 -1.88299e-39 0)
(6.1408e-32 -3.14843e-40 0)
(6.22057e-31 -5.89573e-41 0)
(8.27154e-35 -6.44814e-35 0)
(8.38742e-34 -6.23916e-34 0)
(6.2454e-33 -6.56105e-33 0)
(5.62439e-32 -4.63166e-32 0)
(1.2567e-35 -7.27736e-36 0)
(1.19605e-34 -6.91835e-35 0)
(7.74935e-34 -6.85693e-34 0)
(6.03398e-33 -4.67259e-33 0)
(1.13798e-36 -7.01609e-37 0)
(9.81637e-36 -1.00793e-35 0)
(5.99532e-35 -1.00389e-34 0)
(4.18639e-34 -6.26826e-34 0)
(-3.12274e-37 5.14973e-36 0)
(2.13685e-37 5.3974e-36 0)
(4.77477e-36 -7.37478e-36 0)
(3.56743e-35 -4.99351e-35 0)
(-4.90805e-35 7.06971e-35 0)
(-1.43005e-35 8.45591e-35 0)
(-7.64373e-36 1.15537e-35 0)
(1.22339e-36 -2.69477e-36 0)
(-1.67801e-33 5.37954e-34 0)
(-3.18457e-34 6.58571e-34 0)
(-1.16578e-34 9.25593e-35 0)
(-1.5182e-35 1.31592e-35 0)
(-4.09935e-32 6.22777e-33 0)
(-5.40828e-33 7.56997e-33 0)
(-1.1013e-33 9.17887e-34 0)
(-1.25211e-34 1.28776e-34 0)
(-6.5947e-31 -5.97712e-33 0)
(-6.21435e-32 -8.50867e-34 0)
(-1.21505e-32 -8.37155e-35 0)
(-1.22976e-33 -8.69236e-36 0)
(3.42259e-33 -7.73948e-32 0)
(7.19242e-34 -1.66583e-32 0)
(-1.7574e-34 -1.72747e-33 0)
(-3.15153e-35 -2.08396e-34 0)
(5.22078e-31 -3.3907e-31 0)
(6.12702e-32 -2.33195e-32 0)
(8.86313e-33 -1.16415e-33 0)
(8.39399e-34 -4.58094e-35 0)
(-5.65646e-32 -3.8632e-30 0)
(-7.61848e-33 -2.16835e-31 0)
(-1.1541e-33 -8.98145e-33 0)
(-1.16424e-34 -2.00203e-34 0)
(-1.07143e-30 8.27751e-32 0)
(-1.26323e-31 4.82321e-33 0)
(-1.8457e-32 2.11186e-34 0)
(-1.76037e-33 6.0738e-36 0)
(-3.51555e-32 3.95397e-30 0)
(-5.06798e-33 2.22212e-31 0)
(-7.74902e-34 9.21947e-33 0)
(-7.97327e-35 2.0682e-34 0)
(5.3586e-31 3.48083e-31 0)
(6.3054e-32 2.34871e-32 0)
(9.19548e-33 1.12717e-33 0)
(8.7559e-34 3.63957e-35 0)
(4.55077e-32 7.28302e-32 0)
(6.27932e-33 9.30547e-33 0)
(9.49116e-34 8.29306e-34 0)
(9.61262e-35 8.15573e-35 0)
(-2.10086e-34 1.21006e-32 0)
(-2.41604e-35 1.70305e-33 0)
(-3.32037e-36 1.66442e-34 0)
(-2.76168e-37 1.71541e-35 0)
(-4.40303e-32 7.41285e-32 0)
(-6.03951e-33 9.32654e-33 0)
(-8.95046e-34 8.18681e-34 0)
(-8.9674e-35 7.97091e-35 0)
(-5.44741e-31 3.00304e-31 0)
(-6.27939e-32 1.44955e-32 0)
(-9.09255e-33 1.88272e-34 0)
(-8.56695e-34 -6.63634e-35 0)
(7.391e-31 3.97192e-30 0)
(8.92916e-32 2.11935e-31 0)
(1.31247e-32 8.04477e-33 0)
(1.26524e-33 8.6906e-35 0)
(1.85155e-30 -5.10992e-30 0)
(2.18149e-31 -2.97605e-31 0)
(3.1854e-32 -1.30273e-32 0)
(3.03648e-33 -3.76711e-34 0)
(-6.28111e-31 -9.50691e-30 0)
(-7.39126e-32 -5.39609e-31 0)
(-1.07751e-32 -2.26503e-32 0)
(-1.02577e-33 -5.33387e-34 0)
(-1.87485e-30 -5.68944e-31 0)
(-2.20479e-31 -4.98981e-32 0)
(-3.2149e-32 -3.40619e-33 0)
(-3.06044e-33 -2.5439e-34 0)
(6.67075e-31 4.07181e-30 0)
(7.84589e-32 2.0489e-31 0)
(1.14274e-32 6.69037e-33 0)
(1.08723e-33 -9.35168e-35 0)
(1.90843e-30 -5.3706e-30 0)
(2.23473e-31 -3.08238e-31 0)
(3.25634e-32 -1.31305e-32 0)
(3.09449e-33 -3.29996e-34 0)
(-1.30252e-30 -9.77222e-30 0)
(-1.52452e-31 -5.55433e-31 0)
(-2.22363e-32 -2.35885e-32 0)
(-2.114e-33 -6.07162e-34 0)
(-1.36809e-30 4.12875e-30 0)
(-1.6231e-31 2.2189e-31 0)
(-2.37433e-32 8.79102e-33 0)
(-2.27053e-33 1.65325e-34 0)
(5.59792e-31 1.82919e-31 0)
(6.35625e-32 2.53709e-33 0)
(9.10415e-33 -7.73611e-34 0)
(8.48073e-34 -1.52581e-34 0)
(4.52479e-32 5.25947e-32 0)
(6.55323e-33 1.16605e-32 0)
(5.53387e-34 1.20456e-33 0)
(3.4917e-35 1.62168e-34 0)
(-2.23749e-31 -5.31137e-31 0)
(-4.0597e-33 -3.52317e-32 0)
(-5.00705e-33 -1.68607e-33 0)
(-5.80049e-34 -5.59969e-35 0)
(-6.84508e-32 -5.32691e-30 0)
(-8.88606e-33 -3.16386e-31 0)
(-1.74518e-33 -1.45605e-32 0)
(-1.954e-34 -5.62577e-34 0)
(-7.18138e-31 -4.6831e-31 0)
(-8.48583e-32 -3.30541e-32 0)
(-1.24992e-32 -1.72791e-33 0)
(-1.19828e-33 -7.84091e-35 0)
(-6.13393e-32 -9.62932e-32 0)
(-8.49025e-33 -1.24108e-32 0)
(-1.2956e-33 -1.11294e-33 0)
(-1.32034e-34 -1.10533e-34 0)
(-7.77934e-33 -8.2494e-33 0)
(-1.10637e-33 -1.18759e-33 0)
(-1.85686e-34 -1.17731e-34 0)
(-1.97884e-35 -1.23467e-35 0)
(5.08998e-36 -1.99508e-33 0)
(4.82592e-37 -3.26088e-34 0)
(-7.50399e-38 -3.4385e-35 0)
(-1.82895e-38 -3.83704e-36 0)
(7.98973e-33 -7.96246e-33 0)
(1.12723e-33 -1.10942e-33 0)
(1.873e-34 -1.0781e-34 0)
(1.9799e-35 -1.10402e-35 0)
(5.86636e-32 -9.67841e-32 0)
(8.05541e-33 -1.21417e-32 0)
(1.19627e-33 -1.06309e-33 0)
(1.20028e-34 -1.03276e-34 0)
(7.18424e-31 -3.96499e-31 0)
(8.28293e-32 -1.91958e-32 0)
(1.19944e-32 -2.56076e-34 0)
(1.13021e-33 8.67039e-35 0)
(-9.67467e-31 -5.23782e-30 0)
(-1.16909e-31 -2.79492e-31 0)
(-1.71869e-32 -1.06064e-32 0)
(-1.65713e-33 -1.1396e-34 0)
(-2.44186e-30 6.68915e-30 0)
(-2.87899e-31 3.90257e-31 0)
(-4.20634e-32 1.71449e-32 0)
(-4.01179e-33 5.04057e-34 0)
(7.58434e-31 1.25781e-29 0)
(8.80122e-32 7.20953e-31 0)
(1.28066e-32 3.08483e-32 0)
(1.21254e-33 8.09321e-34 0)
(1.69554e-30 1.17043e-30 0)
(2.01096e-31 8.62231e-32 0)
(2.94118e-32 4.77541e-33 0)
(2.81199e-33 2.45111e-34 0)
(1.38644e-31 2.47856e-31 0)
(1.92445e-32 3.04174e-32 0)
(2.93167e-33 2.64789e-33 0)
(2.99075e-34 2.53554e-34 0)
(3.1476e-30 -1.99451e-41 0)
(4.05472e-29 -1.18142e-41 0)
(3.79573e-29 2.66582e-41 0)
(-3.79015e-29 2.64951e-41 0)
(-3.99606e-29 -1.27014e-41 0)
(4.97775e-32 -2.78472e-41 0)
(4.05526e-29 -1.42122e-41 0)
(4.10835e-29 1.24965e-41 0)
(3.17575e-30 1.40199e-41 0)
(5.85663e-31 1.52533e-42 0)
(4.97279e-32 2.16109e-43 0)
(5.7814e-33 1.25135e-44 0)
(-4.28438e-34 -1.04238e-43 0)
(-1.12183e-32 -1.70532e-42 0)
(-9.36394e-32 -2.7006e-41 0)
(-1.12202e-30 -3.70329e-40 0)
(-5.77114e-30 -4.51009e-39 0)
(-7.90343e-29 -1.49952e-38 0)
(-4.05467e-29 1.23692e-36 0)
(3.79517e-29 6.13851e-35 0)
(4.31475e-29 1.76127e-33 0)
(4.1664e-29 3.7557e-32 0)
(3.80574e-30 5.42075e-31 0)
(3.77781e-30 3.75582e-32 0)
(4.11834e-29 1.82142e-33 0)
(4.11384e-29 1.76127e-33 0)
(3.17736e-30 3.57969e-32 0)
(5.91452e-31 5.04518e-31 0)
(5.59102e-32 -5.04518e-31 0)
(1.28809e-32 -3.57944e-32 0)
(9.92746e-32 -1.63696e-33 0)
(1.16774e-30 1.74535e-33 0)
(6.32947e-30 3.85005e-32 0)
(8.17673e-29 5.55754e-31 0)
(8.0151e-29 4.02618e-32 0)
(-2.95845e-29 3.93612e-32 0)
(3.5942e-29 5.42077e-31 0)
(-3.07807e-30 3.58546e-32 0)
(-7.64378e-29 -3.41038e-32 0)
(-5.4866e-30 -5.04653e-31 0)
(2.74382e-31 -4.23891e-31 0)
(2.52594e-30 -3.49557e-31 0)
(2.3013e-30 8.20937e-31 0)
(-2.29561e-30 8.15988e-31 0)
(-2.47289e-30 -3.91999e-31 0)
(5.06842e-33 -8.53361e-31 0)
(2.52649e-30 -4.33916e-31 0)
(2.57385e-30 3.86655e-31 0)
(2.77588e-31 4.28936e-31 0)
(5.29393e-32 4.23166e-32 0)
(5.06281e-33 5.38252e-33 0)
(6.02718e-34 4.45619e-34 0)
(-4.72999e-35 1.19463e-34 0)
(-1.16758e-33 8.42043e-34 0)
(-9.519e-33 1.03273e-32 0)
(-1.00862e-31 7.92884e-32 0)
(-5.02787e-31 8.15949e-31 0)
(-4.87448e-30 3.49239e-31 0)
(-2.52588e-30 -1.21836e-30 0)
(2.30065e-30 -8.96149e-31 0)
(2.75115e-30 -4.75401e-32 0)
(2.62116e-30 4.21872e-31 0)
(3.35029e-31 4.29466e-31 0)
(3.37323e-31 -3.82985e-31 0)
(2.58446e-30 -3.86327e-31 0)
(2.57909e-30 3.92682e-31 0)
(2.73165e-31 4.32845e-31 0)
(5.86403e-32 7.66279e-32 0)
(1.08063e-32 -2.89699e-32 0)
(-3.26142e-33 -3.86749e-33 0)
(9.60663e-33 -1.08592e-32 0)
(1.04895e-31 -8.25527e-32 0)
(5.47114e-31 -8.15658e-31 0)
(5.11359e-30 -1.95825e-31 0)
(4.98017e-30 1.17817e-30 0)
(-1.57719e-30 4.8219e-31 0)
(2.1286e-30 -1.94523e-31 0)
(-2.62106e-31 1.15292e-30 0)
(-4.6441e-30 3.67766e-32 0)
(-4.77639e-31 -7.04533e-31 0)
(1.61848e-32 -3.69101e-32 0)
(1.02495e-31 -2.94263e-32 0)
(9.17193e-32 7.115e-32 0)
(-9.09976e-32 7.06363e-32 0)
(-9.67004e-32 -3.37165e-32 0)
(6.31271e-34 -7.44014e-32 0)
(1.02568e-31 -3.79505e-32 0)
(1.07636e-31 3.31591e-32 0)
(1.65434e-32 3.74333e-32 0)
(5.7717e-33 4.27817e-33 0)
(6.30364e-34 5.61764e-34 0)
(8.64317e-35 4.94686e-35 0)
(-7.15682e-36 1.34952e-35 0)
(-1.67225e-34 9.33429e-35 0)
(-1.17367e-33 1.07498e-33 0)
(-1.092e-32 7.99883e-33 0)
(-2.73936e-32 7.06319e-32 0)
(-1.99257e-31 2.93893e-32 0)
(-1.0248e-31 -1.05432e-31 0)
(9.16291e-32 -7.87273e-32 0)
(1.13363e-31 -4.7703e-33 0)
(1.12905e-31 3.69929e-32 0)
(2.28654e-32 4.04766e-32 0)
(2.2985e-32 -3.24791e-32 0)
(1.08946e-31 -3.30663e-32 0)
(1.08308e-31 3.38444e-32 0)
(1.61925e-32 3.80878e-32 0)
(6.28527e-33 1.04158e-32 0)
(1.14989e-33 -5.58044e-33 0)
(-1.89588e-34 -6.48788e-34 0)
(1.14084e-33 -1.17594e-33 0)
(1.09209e-32 -8.28408e-33 0)
(2.70135e-32 -7.0726e-32 0)
(2.11818e-31 -2.52723e-32 0)
(2.15904e-31 1.01316e-31 0)
(-5.32418e-32 4.32076e-32 0)
(8.66319e-32 -1.07986e-32 0)
(-1.49351e-32 9.91273e-32 0)
(-1.89044e-31 3.53799e-33 0)
(-3.28858e-32 -6.20936e-32 0)
(7.30935e-34 -4.72012e-33 0)
(2.93429e-33 -3.74087e-33 0)
(2.57935e-33 9.11467e-33 0)
(-2.52283e-33 9.03948e-33 0)
(-2.52825e-33 -4.31338e-33 0)
(4.90332e-35 -9.53476e-33 0)
(2.94017e-33 -4.87694e-33 0)
(3.28921e-33 4.23153e-33 0)
(7.58479e-34 4.80123e-33 0)
(4.03969e-34 5.70333e-34 0)
(4.89524e-35 8.25435e-35 0)
(7.12658e-36 7.62112e-36 0)
(-6.17634e-37 2.18615e-36 0)
(-1.37702e-35 1.43311e-35 0)
(-9.07232e-35 1.57619e-34 0)
(-7.59583e-34 1.05881e-33 0)
(-1.11943e-33 9.03877e-33 0)
(-5.86041e-33 3.73548e-33 0)
(-2.93293e-33 -1.35112e-32 0)
(2.57148e-33 -1.01127e-32 0)
(3.29412e-33 -6.46528e-34 0)
(3.63185e-33 4.69641e-33 0)
(1.20482e-33 4.83549e-33 0)
(1.23746e-33 -4.1718e-33 0)
(3.39322e-33 -4.22172e-33 0)
(3.33998e-33 4.32877e-33 0)
(7.12227e-34 4.86138e-33 0)
(4.66193e-34 1.04161e-33 0)
(1.11668e-34 -3.89436e-34 0)
(-3.32049e-35 -5.88039e-35 0)
(8.41564e-35 -1.64813e-34 0)
(7.44546e-34 -1.05576e-33 0)
(9.79373e-34 -8.85144e-33 0)
(6.3529e-33 -1.22089e-33 0)
(7.12952e-33 1.31632e-32 0)
(-1.08769e-33 5.59604e-33 0)
(2.62364e-33 -1.64388e-33 0)
(-6.12949e-34 1.26713e-32 0)
(-5.56032e-33 5.41863e-34 0)
(-1.78836e-33 -7.59986e-33 0)
(3.72589e-35 -3.52427e-34 0)
(1.45685e-35 -2.74875e-34 0)
(9.51201e-36 6.79877e-34 0)
(-4.32927e-36 6.73645e-34 0)
(2.04063e-35 -3.20599e-34 0)
(4.45679e-36 -7.12962e-34 0)
(1.51186e-35 -3.65548e-34 0)
(4.4848e-35 3.13792e-34 0)
(3.97525e-35 3.59271e-34 0)
(3.47532e-35 4.55354e-35 0)
(4.4485e-36 6.86925e-36 0)
(6.89094e-37 6.62465e-37 0)
(-6.12951e-38 1.9441e-37 0)
(-1.33067e-36 1.24348e-36 0)
(-8.2023e-36 1.309e-35 0)
(-6.51171e-35 8.42626e-35 0)
(-4.53729e-35 6.73582e-34 0)
(-5.35674e-35 2.74407e-34 0)
(-1.44165e-35 -1.0074e-33 0)
(8.76482e-36 -7.59127e-34 0)
(2.01779e-35 -5.14915e-35 0)
(7.49735e-35 3.52525e-34 0)
(7.8319e-35 3.80159e-34 0)
(8.04559e-35 -3.06843e-34 0)
(5.42329e-35 -3.1254e-34 0)
(4.95601e-35 3.22302e-34 0)
(3.64686e-35 3.65894e-34 0)
(3.947e-35 9.89252e-35 0)
(9.21081e-36 -4.65816e-35 0)
(-2.05505e-36 -6.48393e-36 0)
(7.33644e-36 -1.38985e-35 0)
(6.17324e-35 -8.27189e-35 0)
(1.48293e-35 -6.52901e-34 0)
(7.10661e-35 -6.43113e-35 0)
(1.8105e-34 9.85938e-34 0)
(4.5537e-35 4.26777e-34 0)
(3.90573e-35 -8.97981e-35 0)
(-2.79026e-35 9.43192e-34 0)
(-5.63241e-35 4.34761e-35 0)
(-1.19074e-34 -5.75643e-34 0)
(1.73225e-36 -3.17313e-35 0)
(-4.0843e-36 -2.47823e-35 0)
(-3.81895e-36 6.16538e-35 0)
(4.18571e-36 6.10467e-35 0)
(6.42849e-36 -2.9047e-35 0)
(3.15566e-37 -6.46684e-35 0)
(-4.02746e-36 -3.32147e-35 0)
(-2.03962e-36 2.83842e-35 0)
(2.09014e-36 3.26044e-35 0)
(2.34454e-36 4.22603e-36 0)
(3.14933e-37 6.69228e-37 0)
(5.02816e-38 6.62159e-38 0)
(-4.59332e-39 1.99373e-38 0)
(-9.7021e-38 1.24051e-37 0)
(-5.79157e-37 1.27369e-36 0)
(-4.37858e-36 7.78911e-36 0)
(-1.88092e-36 6.10401e-35 0)
(5.91488e-36 2.47554e-35 0)
(4.07855e-36 -9.13736e-35 0)
(-3.87369e-36 -6.89587e-35 0)
(-4.28748e-36 -4.82159e-36 0)
(-1.05852e-37 3.18198e-35 0)
(4.70334e-36 3.34641e-35 0)
(4.94169e-36 -2.78349e-35 0)
(-1.36608e-36 -2.82771e-35 0)
(-1.71134e-36 2.91999e-35 0)
(1.78768e-36 3.31385e-35 0)
(2.76204e-36 8.17184e-36 0)
(7.35673e-37 -3.28256e-36 0)
(-2.1453e-37 -5.16774e-37 0)
(4.95944e-37 -1.30973e-36 0)
(4.06718e-36 -7.34811e-36 0)
(-6.86085e-37 -5.76647e-35 0)
(-5.28841e-36 6.72566e-36 0)
(3.16085e-36 9.08443e-35 0)
(5.76526e-36 3.91334e-35 0)
(-1.22052e-36 -8.74812e-36 0)
(-1.1716e-36 8.54534e-35 0)
(5.1526e-36 4.30168e-36 0)
(-7.38229e-36 -5.11459e-35 0)
(-2.04969e-36 -9.3601e-37 0)
(-6.57617e-37 -1.57027e-36 0)
(-4.38072e-37 4.2404e-36 0)
(4.44974e-37 4.18787e-36 0)
(6.32328e-37 -1.98933e-36 0)
(2.41077e-38 -4.44456e-36 0)
(-4.52433e-37 -2.28651e-36 0)
(-3.04183e-37 1.94087e-36 0)
(1.37963e-37 2.24194e-36 0)
(1.75583e-37 3.01515e-37 0)
(2.40654e-38 4.89989e-38 0)
(3.94487e-39 4.98135e-39 0)
(-3.65459e-40 1.52266e-39 0)
(-7.60924e-39 9.32038e-39 0)
(-4.41516e-38 9.3129e-38 0)
(-3.27452e-37 5.5451e-37 0)
(-1.03882e-37 4.18667e-36 0)
(7.27019e-37 1.68293e-36 0)
(4.56447e-37 -6.27014e-36 0)
(-4.22656e-37 -4.75074e-36 0)
(-4.90136e-37 -3.43265e-37 0)
(-1.56918e-37 2.19372e-36 0)
(3.33985e-37 2.38115e-36 0)
(3.49413e-37 -1.89143e-36 0)
(-2.52945e-37 -1.93091e-36 0)
(-2.78799e-37 2.00261e-36 0)
(1.17788e-37 2.28852e-36 0)
(2.04436e-37 6.49745e-37 0)
(5.31593e-38 -2.99673e-37 0)
(-1.3442e-38 -4.51065e-38 0)
(3.6392e-38 -9.61927e-38 0)
(2.95511e-37 -5.11354e-37 0)
(-1.54128e-37 -3.89048e-36 0)
(-6.97419e-37 8.37041e-37 0)
(1.82196e-38 6.29069e-36 0)
(5.20584e-37 2.73228e-36 0)
(-2.03813e-37 -4.64625e-37 0)
(-7.18151e-38 5.86118e-36 0)
(6.4694e-37 3.08666e-37 0)
(-5.25404e-37 -3.55309e-36 0)
(-1.52061e-35 1.11346e-35 0)
(-1.36571e-36 8.9669e-37 0)
(-1.51982e-37 3.96324e-37 0)
(2.09775e-38 3.22044e-37 0)
(4.18976e-38 -1.49734e-37 0)
(1.51306e-39 -3.3574e-37 0)
(-3.12475e-38 -1.72923e-37 0)
(-2.19078e-38 1.46327e-37 0)
(8.34282e-39 1.69424e-37 0)
(1.11132e-38 2.31336e-38 0)
(1.56221e-39 3.85306e-39 0)
(2.60043e-40 3.97648e-40 0)
(-2.44952e-41 1.23225e-40 0)
(-5.01347e-40 7.43211e-40 0)
(-2.86205e-39 7.31767e-39 0)
(-2.06878e-38 4.24528e-38 0)
(-5.80526e-39 3.16057e-37 0)
(5.09101e-38 1.26613e-37 0)
(3.15079e-38 -4.73593e-37 0)
(-2.89972e-38 -3.59278e-37 0)
(-3.40557e-38 -2.6462e-38 0)
(-1.29074e-38 1.65276e-37 0)
(2.07794e-38 1.77103e-37 0)
(2.20658e-38 -1.42795e-37 0)
(-1.85495e-38 -1.45587e-37 0)
(-2.02792e-38 1.51143e-37 0)
(6.80348e-39 1.7278e-37 0)
(1.32623e-38 4.70365e-38 0)
(3.7265e-39 -2.00841e-38 0)
(-1.10463e-39 -3.22035e-39 0)
(2.25623e-39 -7.36394e-39 0)
(1.82628e-38 -3.75926e-38 0)
(-1.29113e-38 -2.85819e-37 0)
(-4.933e-38 1.23148e-37 0)
(-1.44707e-39 4.82707e-37 0)
(3.41558e-38 2.08515e-37 0)
(-1.46649e-38 -3.61985e-38 0)
(-3.77143e-39 4.42364e-37 0)
(4.56588e-38 2.44662e-38 0)
(-3.31974e-38 -2.65311e-37 0)
(-1.45294e-34 -7.02626e-37 0)
(-1.20484e-35 -6.17846e-38 0)
(-1.09324e-36 1.65199e-38 0)
(-7.98797e-38 1.97816e-38 0)
(-3.48398e-39 -9.52675e-39 0)
(-3.30362e-40 -2.13192e-38 0)
(-2.14908e-39 -1.09911e-38 0)
(-1.50546e-39 9.25843e-39 0)
(5.42465e-40 1.07603e-38 0)
(7.34585e-40 1.50434e-39 0)
(1.04478e-40 2.54366e-40 0)
(1.76224e-41 2.67129e-41 0)
(-1.67497e-42 8.35495e-42 0)
(-3.39668e-41 4.98858e-41 0)
(-1.91174e-40 4.82649e-40 0)
(-1.36632e-39 2.75692e-39 0)
(-3.66328e-40 2.00393e-38 0)
(3.46659e-39 7.97935e-39 0)
(2.13707e-39 -3.00373e-38 0)
(-1.96253e-39 -2.28471e-38 0)
(-2.31323e-39 -1.71712e-39 0)
(-9.0318e-40 1.05206e-38 0)
(1.36548e-39 1.15275e-38 0)
(1.44503e-39 -8.99117e-39 0)
(-1.27946e-39 -9.20169e-39 0)
(-1.39402e-39 9.58387e-39 0)
(4.46513e-40 1.10095e-38 0)
(8.71251e-40 3.28628e-39 0)
(2.42104e-40 -1.52981e-39 0)
(-6.73202e-41 -2.39057e-40 0)
(1.44391e-40 -4.84636e-40 0)
(1.17129e-39 -2.37341e-39 0)
(-1.11806e-39 -1.77477e-38 0)
(-3.36787e-39 1.01151e-38 0)
(4.94258e-41 3.09659e-38 0)
(2.31927e-39 1.34154e-38 0)
(-9.99474e-40 -1.83302e-39 0)
(-2.45782e-40 2.80536e-38 0)
(3.10372e-39 1.59507e-39 0)
(-2.17565e-39 -1.69862e-38 0)
(-6.07796e-36 -1.7343e-35 0)
(-6.21686e-37 -1.48404e-36 0)
(-6.73437e-38 -1.06735e-37 0)
(-5.51761e-39 -6.76909e-39 0)
(-3.10434e-40 -1.17052e-39 0)
(-2.89505e-41 -1.44761e-39 0)
(-1.27807e-40 -7.30371e-40 0)
(-8.9374e-41 6.11802e-40 0)
(3.15713e-41 7.12482e-40 0)
(4.31491e-41 1.00718e-40 0)
(6.23959e-42 1.72565e-41 0)
(1.06154e-42 1.82999e-42 0)
(-1.02037e-43 5.76692e-43 0)
(-2.04538e-42 3.4153e-42 0)
(-1.14079e-41 3.27269e-41 0)
(-8.01579e-41 1.8436e-40 0)
(-2.09626e-41 1.32583e-39 0)
(2.0504e-40 5.26482e-40 0)
(1.26319e-40 -1.98793e-39 0)
(-1.15827e-40 -1.51368e-39 0)
(-1.37045e-40 -1.15244e-40 0)
(-5.4869e-41 6.95483e-40 0)
(7.99982e-41 7.57139e-40 0)
(8.55702e-41 -5.94554e-40 0)
(-7.57228e-41 -6.0817e-40 0)
(-8.27239e-41 6.33948e-40 0)
(2.51797e-41 7.28749e-40 0)
(5.21138e-41 2.13641e-40 0)
(1.52588e-41 -9.58136e-41 0)
(-4.70914e-42 -1.54916e-41 0)
(8.21034e-42 -3.21146e-41 0)
(6.69871e-41 -1.52194e-40 0)
(-7.65888e-41 -1.14076e-39 0)
(-1.99281e-40 9.09923e-40 0)
(1.15855e-41 2.08184e-39 0)
(1.3681e-40 8.96675e-40 0)
(-5.85871e-41 -1.21501e-40 0)
(-1.30174e-41 1.85564e-39 0)
(1.84145e-40 1.087e-40 0)
(-1.2878e-40 -1.11698e-39 0)
(7.95418e-35 -1.238e-36 0)
(5.96207e-36 -3.32662e-38 0)
(4.58131e-37 -1.36881e-39 0)
(3.11708e-38 -6.60669e-41 0)
(2.13359e-39 -4.96782e-41 0)
(1.32913e-40 -8.40881e-41 0)
(7.10946e-43 -4.29207e-41 0)
(-4.8554e-42 3.58812e-41 0)
(1.8999e-42 4.18959e-41 0)
(2.57075e-42 6.01941e-42 0)
(3.74837e-43 1.04044e-42 0)
(6.42141e-44 1.11638e-43 0)
(-6.21097e-45 3.5375e-44 0)
(-1.23698e-43 2.08243e-43 0)
(-6.84713e-43 1.97195e-42 0)
(-4.76983e-42 1.10095e-41 0)
(-1.23423e-42 7.78688e-41 0)
(1.22317e-41 3.07864e-41 0)
(7.53463e-42 -1.16779e-40 0)
(-6.90335e-42 -8.90891e-41 0)
(-8.17899e-42 -6.87363e-42 0)
(-3.27606e-42 4.09773e-41 0)
(4.75834e-42 4.53489e-41 0)
(5.08254e-42 -3.47323e-41 0)
(-4.51836e-42 -3.56353e-41 0)
(-4.9375e-42 3.72372e-41 0)
(1.50042e-42 4.29627e-41 0)
(3.09614e-42 1.34308e-41 0)
(9.0467e-43 -6.37952e-42 0)
(-2.72855e-43 -1.01548e-42 0)
(4.69425e-43 -1.92183e-42 0)
(3.86222e-42 -8.79157e-42 0)
(-5.41857e-42 -6.53586e-41 0)
(-1.18878e-41 6.3731e-41 0)
(1.50779e-42 1.23872e-40 0)
(8.26628e-42 5.33348e-41 0)
(-3.46312e-42 -5.78463e-42 0)
(-7.72003e-43 1.0901e-40 0)
(1.09704e-41 6.49938e-42 0)
(-7.65012e-42 -6.61052e-41 0)
(-1.14101e-35 5.90676e-36 0)
(-8.90963e-37 1.10273e-36 0)
(-7.04247e-38 8.86482e-38 0)
(-4.94281e-39 6.36947e-39 0)
(-3.44794e-40 4.02182e-40 0)
(-2.2112e-41 2.02606e-41 0)
(-1.80586e-42 -1.08855e-42 0)
(-3.74065e-43 2.21901e-42 0)
(9.70882e-44 2.50103e-42 0)
(1.40121e-43 3.61982e-43 0)
(2.07083e-44 6.29895e-44 0)
(3.56672e-45 6.80358e-45 0)
(-3.47864e-46 2.1644e-45 0)
(-6.87073e-45 1.26853e-44 0)
(-3.78438e-44 1.19318e-43 0)
(-2.6038e-43 6.61186e-43 0)
(-6.65447e-44 4.63709e-42 0)
(6.68382e-43 1.8292e-42 0)
(4.11797e-43 -6.95542e-42 0)
(-3.76955e-43 -5.31112e-42 0)
(-4.47734e-43 -4.13517e-43 0)
(-1.81737e-43 2.43998e-42 0)
(2.59713e-43 2.69315e-42 0)
(2.79727e-43 -2.0664e-42 0)
(-2.46434e-43 -2.12018e-42 0)
(-2.70045e-43 2.21709e-42 0)
(7.95652e-44 2.56025e-42 0)
(1.71571e-43 7.96365e-43 0)
(5.20683e-44 -3.72147e-43 0)
(-1.68954e-44 -6.03639e-44 0)
(2.45927e-44 -1.13809e-43 0)
(2.04729e-43 -5.05099e-43 0)
(-3.34059e-43 -3.77258e-42 0)
(-6.4947e-43 4.62399e-42 0)
(1.18746e-43 7.49476e-42 0)
(4.53929e-43 3.20719e-42 0)
(-1.87209e-43 -3.36021e-43 0)
(-3.8754e-44 6.49031e-42 0)
(6.00897e-43 3.9444e-43 0)
(-4.20976e-43 -3.92426e-42 0)
(-1.68555e-34 7.3189e-40 0)
(-1.27321e-35 -1.46157e-38 0)
(-9.88182e-37 -1.31947e-39 0)
(-6.77669e-38 -9.87974e-41 0)
(-4.6628e-39 -6.5719e-42 0)
(-2.93512e-40 -6.81573e-43 0)
(-1.83145e-41 -1.64051e-43 0)
(-1.08133e-42 1.15096e-43 0)
(-5.54632e-44 1.36416e-43 0)
(4.34284e-45 2.00076e-44 0)
(9.61494e-46 3.50089e-45 0)
(1.87567e-46 3.81291e-46 0)
(-1.96928e-47 1.21674e-46 0)
(-3.78426e-46 7.10789e-46 0)
(-2.07639e-45 6.63031e-45 0)
(-1.41865e-44 3.65607e-44 0)
(-3.60065e-45 2.53302e-43 0)
(3.64329e-44 9.95908e-44 0)
(2.24494e-44 -3.79987e-43 0)
(-2.05381e-44 -2.90577e-43 0)
(-2.44221e-44 -2.28322e-44 0)
(-9.91779e-45 1.33641e-43 0)
(1.41493e-44 1.49383e-43 0)
(1.52405e-44 -1.12392e-43 0)
(-1.34242e-44 -1.15606e-43 0)
(-1.47213e-44 1.21121e-43 0)
(4.32641e-45 1.40273e-43 0)
(9.35549e-45 4.57463e-44 0)
(2.84815e-45 -2.22602e-44 0)
(-9.22501e-46 -3.57476e-45 0)
(1.27664e-45 -6.25872e-45 0)
(1.0775e-44 -2.6879e-44 0)
(-2.07552e-44 -2.00245e-43 0)
(-3.53961e-44 2.89378e-43 0)
(8.98114e-45 4.15136e-43 0)
(2.50776e-44 1.77203e-43 0)
(-1.01049e-44 -1.4893e-44 0)
(-2.08296e-45 3.54602e-43 0)
(3.27352e-44 2.18011e-44 0)
(-2.29401e-44 -2.15704e-43 0)
(-7.828e-36 -5.95049e-36 0)
(-6.16022e-37 -1.12608e-36 0)
(-4.86696e-38 -9.07916e-38 0)
(-3.42627e-39 -6.53824e-39 0)
(-2.38991e-40 -4.16424e-40 0)
(-1.53236e-41 -2.60428e-41 0)
(-9.66627e-43 -1.52437e-42 0)
(-5.78268e-44 -8.04862e-44 0)
(-3.01217e-45 2.73391e-45 0)
(2.10045e-46 8.4855e-46 0)
(4.89184e-47 1.80224e-46 0)
(9.65008e-48 2.04819e-47 0)
(-1.02434e-48 6.7196e-48 0)
(-1.95351e-47 3.935e-47 0)
(-1.06941e-46 3.65291e-46 0)
(-7.23776e-46 2.00677e-45 0)
(-1.81986e-46 1.38078e-44 0)
(1.85945e-45 5.41853e-45 0)
(1.146e-45 -2.07154e-44 0)
(-1.04772e-45 -1.5854e-44 0)
(-1.24835e-45 -1.25392e-45 0)
(-5.12176e-46 7.28778e-45 0)
(7.21837e-46 8.14399e-45 0)
(7.8278e-46 -6.11935e-45 0)
(-6.83979e-46 -6.2968e-45 0)
(-7.51849e-46 6.60154e-45 0)
(2.15469e-46 7.65301e-45 0)
(4.83121e-46 2.50182e-45 0)
(1.51384e-46 -1.21149e-45 0)
(-5.17683e-47 -1.96599e-46 0)
(6.18951e-47 -3.37638e-46 0)
(5.31528e-46 -1.4066e-45 0)
(-1.17284e-45 -1.05494e-44 0)
(-1.80623e-45 1.82485e-44 0)
(5.68908e-46 2.29916e-44 0)
(1.28967e-45 9.75106e-45 0)
(-5.1031e-46 -7.6976e-46 0)
(-9.8477e-47 1.93269e-44 0)
(1.67416e-45 1.20327e-45 0)
(-1.17838e-45 -1.17443e-44 0)
(8.37195e-35 2.45512e-37 0)
(6.31667e-36 -6.4359e-38 0)
(4.89817e-37 -6.32375e-39 0)
(3.35639e-38 -4.80095e-40 0)
(2.30802e-39 -3.1421e-41 0)
(1.45203e-40 -1.98991e-42 0)
(9.0454e-42 -1.1785e-43 0)
(5.26604e-43 -6.45738e-45 0)
(3.01585e-44 8.75224e-48 0)
(1.65482e-45 3.67493e-47 0)
(8.9844e-47 8.94819e-48 0)
(4.93054e-48 1.04605e-48 0)
(1.68378e-49 3.48662e-49 0)
(-9.82384e-49 2.04402e-48 0)
(-5.42778e-48 1.88628e-47 0)
(-3.65239e-47 1.0339e-46 0)
(-9.12978e-48 7.04788e-46 0)
(9.38546e-47 2.75862e-46 0)
(5.78515e-47 -1.05743e-45 0)
(-5.28647e-47 -8.10215e-46 0)
(-6.30553e-47 -6.4499e-47 0)
(-2.59143e-47 3.72853e-46 0)
(3.6425e-47 4.20884e-46 0)
(3.95408e-47 -3.11234e-46 0)
(-3.44983e-47 -3.20947e-46 0)
(-3.7956e-47 3.36985e-46 0)
(1.08189e-47 3.91588e-46 0)
(2.44371e-47 1.32774e-46 0)
(7.70382e-48 -6.62533e-47 0)
(-2.65836e-48 -1.06792e-47 0)
(2.94756e-48 -1.72039e-47 0)
(2.58118e-47 -6.93535e-47 0)
(-6.58486e-47 -5.21025e-46 0)
(-9.11553e-47 1.04157e-45 0)
(3.52862e-47 1.19076e-45 0)
(6.59684e-47 5.03002e-46 0)
(-2.55041e-47 -3.14016e-47 0)
(-4.85401e-48 9.86653e-46 0)
(8.44993e-47 6.18925e-47 0)
(-5.95396e-47 -6.02636e-46 0)
(9.3758e-36 6.19279e-36 0)
(7.3164e-37 4.71448e-37 0)
(5.7557e-38 3.2111e-38 0)
(4.03064e-39 2.2031e-39 0)
(2.80296e-40 1.38486e-40 0)
(1.79074e-41 8.62294e-42 0)
(1.12573e-42 5.01882e-43 0)
(6.63029e-44 2.87371e-44 0)
(3.82469e-45 1.57677e-45 0)
(2.10263e-46 8.56101e-47 0)
(1.13361e-47 4.71074e-48 0)
(5.97944e-49 2.6483e-49 0)
(2.61616e-50 2.79129e-50 0)
(-4.65524e-50 1.04764e-49 0)
(-2.61864e-49 9.59022e-49 0)
(-1.74928e-48 5.24937e-48 0)
(-4.33941e-49 3.55784e-47 0)
(4.49609e-48 1.39033e-47 0)
(2.77187e-48 -5.33822e-47 0)
(-2.53155e-48 -4.09315e-47 0)
(-3.02459e-48 -3.27408e-48 0)
(-1.25363e-48 1.88355e-47 0)
(1.74448e-48 2.12883e-47 0)
(1.9045e-48 -1.56901e-47 0)
(-1.65025e-48 -1.619e-47 0)
(-1.81938e-48 1.70095e-47 0)
(5.07432e-49 1.97867e-47 0)
(1.18231e-48 6.75417e-48 0)
(3.81344e-49 -3.37541e-48 0)
(-1.37286e-49 -5.47195e-49 0)
(1.32671e-49 -8.56272e-49 0)
(1.1895e-48 -3.34184e-48 0)
(-3.44589e-48 -2.53264e-47 0)
(-4.36618e-48 5.90455e-47 0)
(1.97597e-48 6.10757e-47 0)
(3.18992e-48 2.56266e-47 0)
(-1.2091e-48 -1.44953e-48 0)
(-2.16252e-49 4.98019e-47 0)
(4.0553e-48 3.1499e-48 0)
(-2.86857e-48 -3.04254e-47 0)
(-2.31432e-38 1.36033e-36 0)
(-1.44771e-39 1.05292e-37 0)
(-9.54692e-41 7.32641e-39 0)
(-5.20673e-42 5.07578e-40 0)
(-2.93829e-43 3.23633e-41 0)
(-1.38932e-44 2.03126e-42 0)
(-6.66063e-46 1.19516e-43 0)
(-2.59161e-47 6.88789e-45 0)
(-9.26085e-49 3.77698e-46 0)
(2.33946e-50 2.02774e-47 0)
(6.82793e-51 1.0553e-48 0)
(1.24351e-51 5.42159e-50 0)
(-1.11997e-52 3.34837e-51 0)
(-2.26937e-51 5.17412e-51 0)
(-1.2407e-50 4.63108e-50 0)
(-8.24483e-50 2.53355e-49 0)
(-2.03474e-50 1.70459e-48 0)
(2.11939e-49 6.64731e-49 0)
(1.30679e-49 -2.55761e-48 0)
(-1.19301e-49 -1.96294e-48 0)
(-1.42681e-49 -1.57751e-49 0)
(-5.92891e-50 9.04298e-49 0)
(8.22202e-50 1.03063e-48 0)
(8.99128e-50 -7.4943e-49 0)
(-7.77326e-50 -7.74774e-49 0)
(-8.57863e-50 8.14978e-49 0)
(2.37452e-50 9.4996e-49 0)
(5.59114e-50 3.33917e-49 0)
(1.81724e-50 -1.70811e-49 0)
(-6.63732e-51 -2.75588e-50 0)
(5.83189e-51 -4.06923e-50 0)
(5.36961e-50 -1.53364e-49 0)
(-1.77779e-49 -1.16851e-48 0)
(-2.05793e-49 3.11199e-48 0)
(1.08327e-49 2.97054e-48 0)
(1.52391e-49 1.24008e-48 0)
(-5.64285e-50 -5.32834e-50 0)
(-9.8682e-51 2.38633e-48 0)
(1.91228e-49 1.51648e-49 0)
(-1.35476e-49 -1.46446e-48 0)
(-8.62414e-36 5.99902e-36 0)
(-6.68012e-37 4.54611e-37 0)
(-5.21395e-38 3.08174e-38 0)
(-3.63424e-39 2.1087e-39 0)
(-2.51604e-40 1.3213e-40 0)
(-1.60288e-41 8.21082e-42 0)
(-1.00511e-42 4.76778e-43 0)
(-5.91052e-44 2.72395e-44 0)
(-3.40436e-45 1.47455e-45 0)
(-1.86203e-46 7.82263e-47 0)
(-9.95138e-48 3.96983e-48 0)
(-5.09369e-49 1.97081e-49 0)
(-2.54613e-50 9.45131e-51 0)
(-1.32877e-51 6.79592e-52 0)
(-6.21103e-52 2.21299e-51 0)
(-3.72467e-51 1.20039e-50 0)
(-9.12855e-52 8.03624e-50 0)
(9.56902e-51 3.12948e-50 0)
(5.90111e-51 -1.20577e-49 0)
(-5.38487e-51 -9.26021e-50 0)
(-6.44941e-51 -7.46817e-51 0)
(-2.69949e-51 4.26731e-50 0)
(3.71165e-51 4.87425e-50 0)
(4.079e-51 -3.52799e-50 0)
(-3.50521e-51 -3.65026e-50 0)
(-3.87547e-51 3.84187e-50 0)
(1.05206e-51 4.48312e-50 0)
(2.54621e-51 1.59046e-50 0)
(8.43255e-52 -8.17706e-51 0)
(-3.18797e-52 -1.32323e-51 0)
(2.44025e-52 -1.88542e-51 0)
(2.319e-51 -6.85409e-51 0)
(-8.68084e-51 -5.28038e-50 0)
(-9.29049e-51 1.61641e-49 0)
(5.53475e-51 1.42308e-49 0)
(6.95433e-51 5.89926e-50 0)
(-2.52135e-51 -2.16688e-51 0)
(-4.14836e-52 1.12495e-49 0)
(8.64831e-51 7.18608e-51 0)
(-6.14851e-51 -6.91121e-50 0)
(-8.15213e-35 -7.93011e-36 0)
(-6.11092e-36 -6.99113e-37 0)
(-4.7224e-37 -4.9922e-38 0)
(-3.22162e-38 -3.48121e-39 0)
(-2.20961e-39 -2.20547e-40 0)
(-1.38566e-40 -1.37812e-41 0)
(-8.61448e-42 -8.04906e-43 0)
(-5.00339e-43 -4.61598e-44 0)
(-2.85917e-44 -2.50968e-45 0)
(-1.54796e-45 -1.33549e-46 0)
(-8.21292e-47 -6.8e-48 0)
(-4.16758e-48 -3.38362e-49 0)
(-2.0685e-49 -1.62125e-50 0)
(-9.88866e-51 -7.48e-52 0)
(-4.86681e-52 6.51669e-53 0)
(-1.85751e-52 5.43709e-52 0)
(-4.11723e-53 3.62872e-51 0)
(4.23921e-52 1.4107e-51 0)
(2.61483e-52 -5.44459e-51 0)
(-2.38525e-52 -4.18474e-51 0)
(-2.85958e-52 -3.38638e-52 0)
(-1.20064e-52 1.93059e-51 0)
(1.64435e-52 2.22097e-51 0)
(1.8109e-52 -1.58881e-51 0)
(-1.55183e-52 -1.6467e-51 0)
(-1.71761e-52 1.73485e-51 0)
(4.62011e-53 2.02802e-51 0)
(1.13254e-52 7.37236e-52 0)
(3.78268e-53 -3.86249e-52 0)
(-1.45445e-53 -6.22841e-53 0)
(9.92651e-54 -8.40137e-53 0)
(9.78123e-53 -2.93742e-52 0)
(-4.16149e-52 -2.28329e-51 0)
(-4.11581e-52 7.93494e-51 0)
(2.76464e-52 6.52598e-51 0)
(3.12309e-52 2.68937e-51 0)
(-1.1058e-52 -6.78209e-53 0)
(-1.76441e-53 5.08021e-51 0)
(3.83406e-52 3.25389e-52 0)
(-2.73088e-52 -3.13387e-51 0)
(1.21581e-34 -1.49526e-35 0)
(9.24049e-36 -1.80237e-36 0)
(7.19108e-37 -1.36484e-37 0)
(4.95167e-38 -9.6611e-39 0)
(3.41433e-39 -6.12173e-40 0)
(2.15558e-40 -3.81982e-41 0)
(1.34574e-41 -2.22396e-42 0)
(7.85589e-43 -1.27258e-43 0)
(4.50453e-44 -6.8999e-45 0)
(2.44842e-45 -3.66445e-46 0)
(1.30271e-46 -1.86159e-47 0)
(6.63146e-48 -9.24708e-49 0)
(3.29921e-49 -4.42258e-50 0)
(1.58057e-50 -2.06634e-51 0)
(7.38591e-52 -8.90156e-53 0)
(2.64453e-53 2.01344e-53 0)
(-2.28673e-55 1.60619e-52 0)
(1.81701e-53 6.24259e-53 0)
(1.11719e-53 -2.41247e-52 0)
(-1.01845e-53 -1.85533e-52 0)
(-1.22253e-53 -1.50524e-53 0)
(-5.16596e-54 8.56405e-53 0)
(7.02219e-54 9.88026e-53 0)
(7.76756e-54 -7.02935e-53 0)
(-6.62022e-54 -7.29234e-53 0)
(-7.33968e-54 7.68677e-53 0)
(1.93937e-54 8.99581e-53 0)
(4.87417e-54 3.3053e-53 0)
(1.65404e-54 -1.74382e-53 0)
(-6.54718e-55 -2.81587e-54 0)
(3.85631e-55 -3.6478e-54 0)
(3.96789e-54 -1.22323e-53 0)
(-1.90733e-53 -9.64205e-53 0)
(-1.75764e-53 3.82296e-52 0)
(1.30909e-53 2.93883e-52 0)
(1.34953e-53 1.20231e-52 0)
(-4.67335e-54 -2.26596e-54 0)
(-7.007e-55 2.25098e-52 0)