/*--------------------------------*- C++ -*----------------------------------*\
| =========                 |                                                 |
| \\      /  F ield         | OpenFOAM: The Open Source CFD Toolbox           |
|  \\    /   O peration     | Version:  2.4.0                                 |
|   \\  /    A nd           | Web:      www.OpenFOAM.org                      |
|    \\/     M anipulation  |                                                 |
\*---------------------------------------------------------------------------*/
FoamFile
{
    version     2.0;
    format      ascii;
    class       surfaceScalarField;
    location    "0.7";
    object      phi;
}
// * * * * * * * * * * * * * * * * * * * * * * * * * * * * * * * * * * * * * //

dimensions      [0 3 -1 0 0 0 0];

internalField   nonuniform List<scalar> 
3782
(
-2.05351e-39
2.28804e-37
-2.44251e-39
3.85962e-38
-6.807e-40
7.02587e-39
-2.41654e-39
8.76423e-40
-2.36914e-38
-3.67991e-40
-1.87442e-37
-2.37652e-38
-1.65068e-36
-5.36367e-37
-7.87263e-36
-8.70067e-36
-6.60086e-35
-1.80948e-34
-3.28878e-34
-1.77102e-36
-2.0779e-34
5.42608e-35
-1.21983e-32
-8.42469e-36
1.2458e-32
-1.13227e-34
2.27823e-34
-6.09764e-36
3.3984e-34
5.61775e-35
7.5339e-35
7.11169e-36
7.45366e-35
5.43682e-39
2.9356e-34
-6.59159e-36
-2.34357e-34
-5.35787e-35
1.33616e-32
8.36276e-35
-2.93334e-32
1.95174e-34
-6.77465e-34
-6.57812e-35
-1.10738e-33
-1.96247e-34
1.41692e-32
6.97292e-35
-3.0922e-32
1.974e-34
-6.99223e-34
-1.34836e-34
1.52479e-32
-1.46994e-34
-1.58935e-32
5.2838e-35
1.58944e-32
3.39842e-36
-1.69013e-32
-1.83551e-34
-3.85361e-34
-1.34953e-35
-4.56948e-34
-7.6448e-35
-9.15297e-35
-9.72545e-36
-1.13038e-35
-1.47171e-36
-1.07361e-35
-3.55769e-39
-8.86089e-35
1.44488e-36
-3.86295e-34
8.84873e-36
3.05374e-34
7.07004e-35
-1.76041e-32
-1.09578e-34
3.85899e-32
-2.58056e-34
1.3014e-33
7.6502e-35
1.16196e-33
1.81986e-34
2.22078e-35
1.78372e-36
-1.79286e-38
1.16628e-35
-1.389e-37
8.33141e-35
-1.06765e-36
-6.10851e-36
3.86042e-34
2.86595e-37
-2.10434e-38
1.80124e-36
-1.62428e-37
1.16009e-35
-1.23866e-36
-7.04098e-36
5.06813e-35
4.87339e-38
-3.6062e-39
2.7328e-37
-2.77189e-38
1.51469e-36
-2.00953e-37
-1.0847e-36
4.68317e-36
5.58312e-39
4.36237e-40
2.90934e-38
-3.30813e-39
1.43477e-37
-3.31001e-38
-1.69047e-37
3.34266e-37
2.22519e-40
1.04951e-38
2.76151e-39
1.43143e-38
1.43717e-38
-6.24215e-40
-1.816e-38
2.50262e-38
-1.54172e-38
6.6946e-38
-6.16451e-39
9.97745e-38
-1.41851e-39
2.04549e-38
1.77623e-39
1.27754e-39
-3.28092e-37
4.76704e-37
-9.2061e-38
7.39748e-37
-2.89227e-38
1.34803e-37
2.36225e-38
-5.32684e-39
-5.08664e-36
-7.92758e-37
-1.00927e-36
4.38745e-37
-2.24495e-37
8.84146e-38
1.68334e-38
-3.63989e-38
-1.02788e-35
-1.18734e-35
-7.67363e-36
-2.47589e-36
-1.60143e-36
-3.35943e-37
-4.68008e-38
-2.34414e-37
2.88075e-36
-5.35572e-35
6.15282e-37
-6.61313e-36
7.05612e-38
-6.25997e-37
-6.07335e-38
5.67867e-39
6.0965e-35
-3.69672e-34
1.06794e-35
-3.13913e-35
1.83407e-36
-1.97757e-36
-7.83398e-38
2.46185e-37
-9.64838e-36
-3.19397e-34
-1.94443e-36
-2.63985e-35
-3.54537e-37
-1.61709e-36
-5.88402e-38
-5.06914e-38
-1.26759e-34
3.4258e-34
-2.23906e-35
2.84272e-35
-3.88696e-36
1.75046e-36
6.48254e-38
-5.26924e-37
-7.05007e-36
3.79314e-34
-1.4773e-36
3.22056e-35
-2.71572e-37
2.02343e-36
7.85098e-38
-3.91914e-38
6.2848e-35
5.46074e-35
1.1056e-35
6.06749e-36
1.9132e-36
5.10423e-37
3.88021e-38
2.58563e-37
8.1775e-36
1.29066e-35
1.66822e-36
2.07033e-36
3.0323e-37
2.50903e-37
3.02705e-38
4.32811e-38
8.77628e-39
1.25628e-35
4.39744e-39
1.97583e-36
1.27811e-39
2.34731e-37
2.78582e-38
2.51085e-40
-7.55976e-36
4.615e-35
-1.5219e-36
4.33605e-36
-2.71085e-37
2.68656e-37
6.36044e-39
-3.80795e-38
-5.96054e-35
3.49554e-34
-1.01372e-35
2.68426e-35
-1.72728e-36
1.39219e-36
7.51641e-39
-2.29415e-37
9.41402e-35
-1.41369e-34
1.71658e-35
-1.54199e-35
3.01428e-36
-1.28292e-36
-9.63719e-38
4.14041e-37
2.18452e-34
-1.27887e-33
3.85369e-35
-1.08887e-34
6.68357e-36
-6.93644e-36
-2.89004e-37
9.05211e-37
-7.35853e-35
-9.00094e-34
-1.29376e-35
-7.86703e-35
-2.23698e-36
-5.22675e-36
-2.5142e-37
-3.02083e-37
-2.19521e-34
2.34528e-34
-3.85875e-35
1.26556e-35
-6.67597e-36
6.89154e-38
-1.10182e-37
-9.01995e-37
7.79885e-35
-1.64893e-34
1.36982e-35
-1.88224e-35
2.36605e-36
-1.66563e-36
-1.39527e-37
3.19246e-37
2.20587e-34
-1.30855e-33
3.85436e-35
-1.10732e-34
6.65597e-36
-7.03201e-36
-2.93236e-37
8.97169e-37
-1.50686e-34
-5.2026e-34
-2.63436e-35
-4.60835e-35
-4.55668e-36
-3.0746e-36
-1.46009e-37
-6.1507e-37
-1.64769e-34
3.35349e-34
-2.93404e-35
2.47935e-35
-5.10632e-36
1.22121e-36
-1.72129e-39
-6.94412e-37
5.89987e-35
2.44008e-35
9.80739e-36
1.57198e-36
1.64767e-36
-1.75376e-38
-1.90549e-38
2.15435e-37
1.09375e-35
-6.26206e-35
2.24502e-36
-5.70917e-36
3.40997e-37
-3.50125e-37
-3.80491e-39
4.15511e-38
7.03769e-35
-5.21316e-34
3.99813e-36
-4.61562e-35
3.04053e-37
-3.1343e-36
-1.66089e-37
1.58621e-38
-8.43067e-36
-5.16842e-34
-1.64766e-36
-4.60003e-35
-3.57063e-37
-3.15465e-36
-1.72545e-37
-5.70153e-38
-8.51975e-35
-7.3808e-35
-1.51019e-35
-8.43656e-36
-2.6405e-36
-7.4117e-37
-6.15975e-38
-3.6019e-37
-1.11738e-35
-1.55722e-35
-2.29224e-36
-2.50119e-36
-4.20636e-37
-3.03325e-37
-3.68284e-38
-6.0531e-38
-1.70958e-36
-2.16637e-36
-3.67306e-37
-3.97663e-37
-7.21559e-38
-5.41973e-38
-7.17272e-39
-1.08852e-38
-4.44387e-39
-2.04212e-36
-1.27673e-39
-3.6579e-37
-3.4891e-40
-4.89085e-38
-6.34635e-39
-6.5523e-41
1.67496e-36
-1.47248e-35
3.55633e-37
-2.27511e-36
6.89745e-38
-2.65308e-37
-3.09913e-38
1.02854e-38
1.01531e-35
-6.06826e-35
2.04878e-36
-5.68129e-36
3.66049e-37
-3.48711e-37
-7.58333e-39
5.15573e-38
7.86569e-35
-4.61111e-34
1.33815e-35
-3.54072e-35
2.2804e-36
-1.83483e-36
-9.51138e-39
3.02928e-37
-1.23363e-34
1.82831e-34
-2.25048e-35
2.01713e-35
-3.95309e-36
1.70146e-36
1.30891e-37
-5.43174e-37
-2.88896e-34
1.69156e-33
-5.10296e-35
1.451e-34
-8.85819e-36
9.37052e-36
4.11493e-37
-1.20077e-36
8.53023e-35
1.24628e-33
1.47125e-35
1.09384e-34
2.53091e-36
7.24404e-36
3.39821e-37
3.39455e-37
2.03998e-34
1.88548e-34
3.63084e-35
2.18454e-35
6.31811e-36
1.94124e-36
1.6192e-37
8.59029e-37
2.55643e-35
5.26418e-36
9.69252e-37
1.39964e-37
5.22355e-34
-4.24826e-35
1.0961e-32
-3.16988e-35
9.43411e-36
8.13921e-35
-1.08821e-32
8.05196e-35
-1.10712e-34
-3.8029e-35
1.97692e-34
-8.59629e-35
1.12864e-32
-4.42455e-35
5.82018e-34
3.70595e-35
4.01745e-34
4.33634e-35
7.74215e-35
6.31436e-36
9.36979e-36
9.8114e-37
1.01883e-36
1.1262e-37
-2.29005e-36
3.66871e-38
-1.75125e-35
2.09203e-37
-1.4557e-34
1.8528e-36
-7.27181e-34
1.16589e-35
-7.70151e-34
8.05078e-35
-2.20565e-32
3.16031e-35
1.05832e-32
-1.20414e-34
3.77751e-34
-9.23837e-35
1.16194e-32
-7.00275e-36
7.2706e-34
4.57501e-35
8.13402e-34
4.47102e-35
6.70454e-34
-3.27192e-35
1.13722e-32
-3.6702e-35
5.92092e-34
3.84581e-35
4.03268e-34
4.75087e-35
7.89216e-35
8.78798e-36
1.20558e-35
-1.50527e-36
1.95023e-35
-4.1313e-36
1.5425e-34
-2.21272e-36
7.99531e-34
-1.20343e-35
1.12181e-33
-7.83765e-35
2.2458e-32
7.45395e-35
1.24097e-33
1.16941e-34
-1.01807e-32
5.55701e-35
2.11074e-32
-7.67249e-36
-2.19188e-32
1.14656e-34
-6.92483e-34
2.08153e-36
-6.559e-35
3.08224e-34
-4.80643e-35
4.97784e-34
-3.56407e-35
1.45908e-36
9.20251e-35
-4.86776e-34
9.10138e-35
-2.54991e-34
-4.29403e-35
2.67247e-34
-9.72859e-35
5.40044e-34
-5.01075e-35
3.17419e-34
4.18157e-35
5.28578e-35
4.90851e-35
1.07756e-35
7.28157e-36
1.44852e-36
1.13832e-36
1.61375e-37
1.31747e-37
-3.65217e-37
4.30689e-38
-2.70081e-36
2.44648e-37
-2.01187e-35
2.14859e-36
-9.51171e-35
1.34382e-35
-5.83186e-34
9.1e-35
-7.71622e-34
3.55284e-35
-3.39968e-35
-1.36118e-34
5.31685e-34
-1.04707e-34
5.82871e-34
-8.38243e-36
3.3694e-34
4.74783e-35
1.07763e-34
4.7339e-35
3.30482e-34
-4.11564e-35
5.52128e-34
-4.17173e-35
3.18493e-34
4.31374e-35
5.31804e-35
4.98212e-35
1.20463e-35
1.11759e-35
1.95347e-36
-2.77094e-36
2.50262e-36
-7.20516e-37
2.12825e-35
-2.2955e-36
1.04399e-34
-1.41677e-35
6.28844e-34
-9.30644e-35
1.06734e-33
-7.36261e-35
4.03313e-34
1.27296e-34
8.65812e-35
5.85183e-35
1.6706e-34
-1.12477e-35
-5.11357e-34
1.25436e-34
-5.3905e-34
6.15818e-36
-7.12267e-35
1.96511e-35
-6.44321e-36
2.98383e-35
-4.54098e-36
2.23139e-37
1.22769e-35
-2.83704e-35
1.21138e-35
-1.46928e-35
-5.66841e-36
1.63459e-35
-1.30758e-35
3.33307e-35
-6.77347e-36
2.08301e-35
5.48601e-36
4.88996e-36
6.60851e-36
1.42612e-36
1.12465e-36
2.20995e-37
1.84818e-37
2.71651e-38
2.26706e-38
-6.20433e-38
7.61772e-39
-4.08572e-37
4.19827e-38
-2.63412e-36
3.47638e-37
-8.38376e-36
2.06684e-36
-3.69491e-35
1.21114e-35
-4.69727e-35
4.52135e-36
-2.444e-36
-1.81325e-35
3.22665e-35
-1.42236e-35
3.69198e-35
-1.2963e-36
2.33852e-35
6.36977e-36
1.00801e-35
6.4866e-36
2.25955e-35
-5.35686e-36
3.49542e-35
-5.46121e-36
2.10101e-35
5.70917e-36
4.94399e-36
6.74407e-36
1.59748e-36
1.84055e-36
3.04518e-37
-5.33683e-37
3.84092e-37
-1.32368e-37
2.72032e-36
-3.76364e-37
8.98445e-36
-2.16993e-36
4.04241e-35
-1.24381e-35
6.75403e-35
-5.87804e-36
2.86472e-35
1.6778e-35
7.39571e-36
8.12045e-36
9.24773e-36
-6.42984e-37
-3.1798e-35
1.6531e-35
-3.48346e-35
9.52439e-37
-9.21861e-36
9.10315e-37
-9.51061e-37
1.26132e-36
-6.59837e-37
2.39291e-38
1.81471e-36
-1.11997e-36
1.78766e-36
-5.52011e-37
-8.35308e-37
7.12839e-37
-1.93558e-36
1.47853e-36
-1.0068e-36
1.02015e-36
8.049e-37
3.50479e-37
9.79405e-37
1.36445e-37
1.74895e-37
2.36605e-38
3.08486e-38
3.07695e-39
3.97291e-39
-7.08065e-39
1.39005e-39
-4.34987e-38
7.32854e-39
-2.49572e-37
5.78506e-38
-5.67921e-37
3.1937e-37
-1.70861e-36
1.78722e-36
-2.04242e-36
6.5649e-37
-1.20928e-37
-2.68131e-36
1.37961e-36
-2.11458e-36
1.70212e-36
-2.04071e-37
1.25809e-36
9.34147e-37
7.36268e-37
9.25468e-37
1.19679e-36
-7.88779e-37
1.63612e-36
-8.0115e-37
1.03678e-36
8.41852e-37
3.57258e-37
9.9726e-37
1.61331e-37
2.53662e-37
3.36874e-38
-4.83784e-38
3.74642e-38
-1.71398e-38
2.53215e-37
-6.12655e-38
5.97157e-37
-3.29101e-37
1.90811e-36
-1.80992e-36
3.17315e-36
-6.85041e-37
1.55946e-36
2.49997e-36
4.79829e-37
1.22101e-36
3.77386e-37
-9.21857e-38
-1.44932e-36
2.43701e-36
-1.71756e-36
1.63886e-37
-1.31485e-36
2.25854e-38
-9.93831e-38
1.59913e-38
-6.74152e-38
2.66969e-39
1.89759e-37
-1.35765e-39
1.86624e-37
4.77989e-39
-8.69474e-38
1.1987e-38
-2.02949e-37
2.8777e-38
-1.05984e-37
3.36692e-38
8.34094e-38
2.64619e-38
1.02809e-37
1.40421e-38
1.94482e-38
2.63531e-39
3.59309e-39
3.60486e-40
4.82736e-40
-8.34367e-40
1.73598e-40
-4.81962e-39
8.87893e-40
-2.54903e-38
6.71957e-39
-3.92822e-38
3.53567e-38
-4.29323e-38
1.86569e-37
-3.44316e-38
6.70232e-38
-3.17479e-39
-2.8035e-37
1.8866e-38
-2.22884e-37
4.23438e-38
-2.27643e-38
5.79484e-38
9.78423e-38
5.67723e-38
9.87526e-38
5.21194e-38
-8.12278e-38
4.51598e-38
-8.28636e-38
3.56375e-38
8.78193e-38
2.72511e-38
1.05125e-37
1.66607e-38
2.96499e-38
3.78994e-39
-6.6647e-39
4.14282e-39
-2.21527e-39
2.51832e-38
-7.12217e-39
3.79653e-38
-3.59986e-38
5.07907e-38
-1.87229e-37
9.24209e-38
-6.37477e-38
7.45175e-38
2.62287e-37
3.13705e-38
1.30833e-37
5.25452e-39
-2.61785e-39
-3.62241e-38
2.54127e-37
-6.18275e-38
1.88742e-38
-1.36185e-37
-7.91165e-40
-1.02728e-38
-2.84131e-39
-7.19944e-39
2.51944e-40
2.0693e-38
4.14784e-39
2.03209e-38
2.75388e-39
-9.46014e-39
-1.23407e-39
-2.21417e-38
-2.0796e-39
-1.15968e-38
2.88328e-40
9.04568e-39
1.97408e-39
1.12258e-38
1.26072e-39
2.18609e-39
2.49988e-40
4.21339e-40
3.5201e-41
5.8375e-41
-8.18669e-41
2.15201e-41
-4.55674e-40
1.07086e-40
-2.2756e-39
7.86338e-40
-2.72664e-39
3.95744e-39
1.20474e-39
2.03134e-38
3.5212e-39
7.21658e-39
9.31897e-41
-3.05742e-38
-2.95608e-39
-2.43869e-38
-1.27842e-39
-2.57683e-39
2.43215e-39
1.06228e-38
4.33003e-39
1.06587e-38
1.98809e-39
-8.81063e-39
-5.96582e-40
-8.98198e-39
4.61889e-40
9.56305e-39
2.05518e-39
1.14798e-38
1.54406e-39
3.21965e-39
3.65582e-40
-6.18958e-40
3.69434e-40
-2.39728e-40
2.20176e-39
-8.19459e-40
2.39123e-39
-3.94189e-39
-1.03712e-39
-2.00037e-38
-4.99565e-40
-4.81182e-39
3.35801e-39
2.89415e-38
2.06927e-39
1.44881e-38
-6.74141e-40
-1.12332e-40
1.03013e-39
2.76898e-38
-1.23326e-39
2.24098e-39
-1.46172e-38
-1.04084e-39
2.22308e-39
-5.45378e-40
-2.96968e-40
1.116e-41
1.95255e-39
5.57928e-40
1.88341e-39
3.50719e-40
-8.73546e-40
-2.09313e-40
-2.0535e-39
-3.84861e-40
-1.07844e-39
-8.71407e-41
8.32964e-40
1.65188e-40
1.04192e-39
1.16758e-40
2.09576e-40
2.38828e-41
4.16111e-41
3.43634e-42
5.92133e-42
-8.01901e-42
2.22314e-42
-4.34235e-41
1.084e-41
-2.10046e-40
7.75143e-41
-2.1745e-40
3.78223e-40
3.21231e-40
1.87911e-39
5.97982e-40
6.58464e-40
2.50662e-41
-2.83195e-39
-4.65129e-40
-2.26901e-39
-3.27641e-40
-2.47516e-40
1.10732e-40
9.84843e-40
3.66442e-40
1.00194e-39
7.12118e-41
-8.07288e-40
-2.46908e-40
-8.25799e-40
-6.99885e-41
8.84897e-40
1.731e-40
1.06894e-39
1.43068e-40
3.1912e-40
3.50241e-41
-6.86084e-41
3.47488e-41
-2.53899e-41
1.98287e-40
-8.04017e-41
1.61837e-40
-3.70342e-40
-3.41555e-40
-1.82248e-39
-3.95259e-40
-3.14849e-40
1.87463e-40
2.70425e-39
1.63213e-40
1.36669e-39
-1.07898e-40
3.54774e-41
2.69017e-40
2.56299e-39
6.31414e-41
2.20376e-40
-1.34856e-39
-5.07276e-39
2.23501e-39
-6.36949e-40
2.08752e-40
-6.59052e-41
2.05736e-40
4.48845e-41
1.77638e-40
3.14782e-41
-8.1029e-41
-2.02908e-41
-1.91355e-40
-3.77849e-41
-1.00703e-40
-1.06591e-41
7.72918e-41
1.32647e-41
9.71556e-41
9.80288e-42
1.9926e-41
2.05563e-42
4.05397e-42
2.99911e-43
5.88053e-43
-7.01986e-43
2.24114e-43
-3.73092e-42
1.07469e-42
-1.75867e-41
7.54164e-42
-1.70617e-41
3.58666e-41
3.3023e-41
1.74863e-40
5.78774e-41
6.07699e-41
2.61984e-42
-2.63826e-40
-4.44805e-41
-2.11889e-40
-3.36675e-41
-2.36225e-41
5.79583e-42
9.15402e-41
2.97177e-41
9.30739e-41
2.8289e-42
-7.48457e-41
-2.61491e-41
-7.65823e-41
-9.24713e-42
8.23645e-41
1.39779e-41
9.97401e-41
1.22412e-41
2.99908e-41
3.03985e-42
-6.07678e-42
2.84438e-42
-2.40419e-42
1.62478e-41
-7.70529e-42
1.09498e-41
-3.42999e-41
-3.63451e-41
-1.66048e-40
-4.25542e-41
-1.1554e-41
1.2561e-41
2.55212e-40
1.28528e-41
1.29053e-40
-9.98833e-42
4.85493e-42
2.77115e-41
2.38676e-40
1.03404e-41
2.15843e-41
-1.24529e-40
-3.12694e-38
-5.67013e-39
-3.51056e-39
-5.92342e-40
-3.9014e-40
-4.06843e-41
-3.44529e-41
9.52576e-42
-1.02263e-42
-7.27865e-42
-2.10287e-42
-1.61591e-41
-3.33919e-42
-8.50166e-42
-9.91457e-43
6.47918e-42
1.08592e-42
8.18823e-42
8.18102e-43
1.71441e-42
1.74263e-43
3.55235e-43
2.57018e-44
5.2423e-44
-6.02923e-44
2.02151e-44
-3.15848e-43
9.56713e-44
-1.46514e-42
6.60028e-43
-1.38285e-42
3.07977e-42
2.93267e-42
1.47045e-41
5.04836e-42
5.06228e-42
2.35105e-43
-2.2206e-41
-3.86583e-42
-1.78871e-41
-2.98585e-42
-2.03421e-42
3.81002e-43
7.71188e-42
2.44163e-42
7.92068e-42
1.41038e-43
-6.24942e-42
-2.33651e-42
-6.41178e-42
-8.67707e-43
6.92913e-42
1.1475e-42
8.42692e-42
1.02338e-42
2.64046e-42
2.57853e-43
-5.7658e-43
2.3517e-43
-2.21086e-43
1.32047e-42
-6.69062e-43
7.25822e-43
-2.88563e-42
-3.34317e-42
-1.37019e-41
-3.73309e-42
2.1453e-43
1.05686e-42
2.17202e-41
1.06983e-42
1.10249e-41
-8.53061e-43
6.64292e-43
2.45362e-42
2.00857e-41
1.00943e-42
1.88627e-42
-1.04615e-41
-2.04379e-40
-5.87114e-39
-9.50696e-41
-5.49053e-40
-1.85182e-41
-4.92015e-41
-2.08993e-42
-3.48644e-42
-7.43707e-44
-9.7952e-43
-1.67839e-43
-1.37486e-42
-2.62702e-43
-7.09967e-43
-7.94543e-44
5.3636e-43
8.32786e-44
6.80573e-43
6.34039e-44
1.4449e-43
1.37062e-44
3.0384e-44
2.03754e-45
4.54121e-45
-4.78963e-45
1.7678e-45
-2.48155e-44
8.2783e-45
-1.13359e-43
5.64016e-44
-1.05477e-43
2.59139e-43
2.31393e-43
1.22036e-42
3.95634e-43
4.17454e-43
1.87372e-44
-1.84432e-42
-3.02793e-43
-1.48838e-42
-2.36041e-43
-1.7178e-43
2.62739e-44
6.39901e-43
1.88197e-43
6.58145e-43
9.25226e-45
-5.16863e-43
-1.84184e-43
-5.30668e-43
-6.9968e-44
5.75185e-43
8.82842e-44
7.01032e-43
8.03855e-44
2.22025e-43
2.0372e-44
-4.7636e-44
1.76331e-44
-1.87784e-44
9.97697e-44
-5.63538e-44
4.50213e-44
-2.36815e-43
-2.71155e-43
-1.11136e-42
-2.88223e-43
1.39292e-43
8.6764e-44
1.82841e-42
8.34625e-44
9.26869e-43
-6.48477e-44
6.53589e-44
1.94094e-43
1.66788e-42
8.13838e-44
1.61689e-43
-8.64426e-43
2.73617e-38
8.18678e-40
2.72007e-39
4.98052e-40
2.61362e-40
5.84659e-41
2.33273e-41
5.57131e-42
2.02545e-42
4.13789e-43
1.53055e-43
-6.72615e-44
-6.9227e-45
-5.20243e-44
-5.11869e-45
4.15559e-44
6.36466e-45
5.26716e-44
4.82378e-45
1.13411e-44
1.05303e-45
2.4126e-45
1.57516e-46
3.64812e-46
-3.708e-46
1.43114e-46
-1.90428e-45
6.64382e-46
-8.60475e-45
4.47451e-45
-7.9459e-45
2.03115e-44
1.76801e-44
9.4269e-44
3.01397e-44
3.20254e-44
1.44206e-45
-1.4256e-43
-2.30632e-44
-1.15291e-43
-1.80395e-44
-1.34847e-44
1.90863e-45
4.95125e-44
1.42499e-44
5.13184e-44
6.6102e-46
-3.97052e-44
-1.40487e-44
-4.08577e-44
-5.37755e-45
4.4449e-44
6.68221e-45
5.43472e-44
6.12992e-45
1.77274e-44
1.56437e-45
-4.01278e-45
1.31002e-45
-1.54544e-45
7.37495e-45
-4.42606e-45
2.5107e-45
-1.81379e-44
-2.13892e-44
-8.39971e-44
-2.13492e-44
1.89846e-44
7.29555e-45
1.43083e-43
6.48346e-45
7.25702e-44
-4.84095e-45
6.30405e-45
1.48231e-44
1.28923e-43
6.25545e-45
1.28127e-44
-6.67639e-44
-5.88221e-39
1.47543e-39
-6.10189e-40
4.94478e-40
-6.06864e-41
5.60174e-41
-5.59232e-42
5.25144e-42
-4.95683e-43
4.37033e-43
-4.23779e-44
2.74538e-44
-4.78901e-45
-1.4647e-45
-6.98973e-46
3.31832e-45
4.30249e-46
3.99894e-45
3.44607e-46
8.68115e-46
7.627e-47
1.86283e-46
1.14751e-47
2.84149e-47
-2.70727e-47
1.1215e-47
-1.38046e-46
5.17015e-47
-6.1708e-46
3.45149e-46
-5.66156e-46
1.55152e-45
1.27106e-45
7.12568e-45
2.16235e-45
2.40852e-45
1.044e-46
-1.07817e-44
-1.65522e-45
-8.73244e-45
-1.29928e-45
-1.03207e-45
1.31843e-46
3.74404e-45
1.02164e-45
3.88964e-45
4.90001e-47
-2.99164e-45
-1.00751e-45
-3.08143e-45
-3.89178e-46
3.36052e-45
4.78467e-46
4.11676e-45
4.44824e-46
1.3586e-45
1.13749e-46
-3.08096e-46
9.04889e-47
-1.19696e-46
5.15095e-46
-3.36531e-46
1.21061e-46
-1.34925e-45
-1.58143e-45
-6.19323e-45
-1.48915e-45
2.14308e-45
5.70037e-46
1.09713e-44
4.73996e-46
5.55029e-45
-3.38025e-46
5.31956e-46
1.06853e-45
9.74952e-45
4.49281e-46
9.89774e-46
-5.03471e-45
-5.92732e-38
-1.42767e-39
-5.95565e-39
-5.1948e-40
-5.79031e-40
-5.9388e-41
-5.21844e-41
-5.59002e-42
-4.55184e-42
-4.71612e-43
-3.74724e-43
-3.85015e-44
-2.99546e-44
-3.19267e-45
-2.30033e-45
8.93629e-48
-1.35806e-46
2.70297e-46
1.24118e-47
6.17281e-47
4.58086e-48
1.3514e-47
7.60268e-49
2.08506e-48
-1.92574e-48
8.28809e-49
-9.74617e-48
3.80002e-48
-4.32092e-47
2.51608e-47
-3.94587e-47
1.12217e-46
8.91086e-47
5.09861e-46
1.51382e-46
1.71427e-46
7.35939e-48
-7.71808e-46
-1.159e-46
-6.26124e-46
-9.11477e-47
-7.46971e-47
9.05361e-48
2.68315e-46
7.14785e-47
2.80483e-46
3.48779e-48
-2.13089e-46
-7.0493e-47
-2.19916e-46
-2.73524e-47
2.40537e-46
3.34602e-47
2.9541e-46
3.13129e-47
9.9715e-47
8.02999e-48
-2.35625e-47
6.13866e-48
-8.98374e-48
3.50419e-47
-2.42474e-47
4.01451e-48
-9.51267e-47
-1.14289e-46
-4.32402e-46
-1.00831e-46
2.00258e-46
4.38558e-47
7.95725e-46
3.40373e-47
4.01943e-46
-2.31727e-47
4.35465e-47
7.49616e-47
6.97985e-46
3.14652e-47
7.20859e-47
-3.60381e-46
-4.55274e-39
-1.16762e-39
-4.73214e-40
-5.54652e-40
-4.69986e-41
-6.47298e-41
-4.32871e-42
-6.13091e-42
-3.83475e-43
-5.18346e-43
-3.20575e-44
-4.18097e-44
-2.59134e-45
-3.21131e-45
-2.00839e-46
-2.20402e-46
-1.26884e-47
3.19394e-48
5.676e-49
3.26613e-48
2.90849e-49
8.85568e-49
5.02246e-50
1.44033e-49
-1.30576e-49
5.90515e-50
-6.57344e-49
2.70808e-49
-2.89078e-48
1.78168e-48
-2.62753e-48
7.89603e-48
5.9663e-48
3.55805e-47
1.01223e-47
1.19139e-47
4.9535e-49
-5.38805e-47
-7.75277e-48
-4.37644e-47
-6.11285e-48
-5.261e-48
5.90135e-49
1.87382e-47
4.78289e-48
1.96425e-47
2.43718e-49
-1.48257e-47
-4.71005e-48
-1.53177e-47
-1.84002e-48
1.6789e-47
2.2366e-48
2.06547e-47
2.11551e-48
7.05376e-48
5.42358e-49
-1.68536e-48
3.9315e-49
-6.42072e-49
2.27664e-48
-1.69191e-48
-1.53404e-50
-6.50691e-48
-7.86832e-48
-2.9369e-47
-6.52559e-48
1.75427e-47
3.17805e-48
5.63331e-47
2.32746e-48
2.83573e-47
-1.51024e-48
3.29596e-48
5.03245e-48
4.8727e-47
2.10146e-48
5.10784e-48
-2.51225e-47
2.90079e-38
2.82701e-39
2.90813e-39
1.9824e-40
2.82214e-40
1.5096e-41
2.53934e-41
1.22599e-42
2.21205e-42
9.78027e-44
1.8186e-43
7.69343e-45
1.44763e-44
5.78681e-46
1.09934e-45
4.35659e-47
8.10787e-47
4.32864e-48
5.83287e-48
5.02909e-49
4.17288e-49
7.87159e-50
2.97332e-50
1.10207e-50
-6.89919e-51
4.1111e-51
-4.30494e-50
1.84385e-50
-1.88562e-49
1.20552e-49
-1.70757e-49
5.31509e-49
3.89415e-49
2.37524e-48
6.59978e-49
7.92007e-49
3.24724e-50
-3.59806e-48
-5.0561e-49
-2.92629e-48
-3.99332e-49
-3.5418e-49
3.78414e-50
1.2528e-48
3.11895e-49
1.32011e-48
1.62859e-50
-9.85905e-49
-3.06911e-49
-1.02042e-48
-1.20405e-49
1.1211e-48
1.4577e-49
1.38213e-48
1.38774e-49
4.80677e-49
3.55841e-50
-1.18749e-49
2.46217e-50
-4.45197e-50
1.43893e-49
-1.12989e-49
-2.06082e-50
-4.25913e-49
-5.28737e-49
-1.90776e-48
-4.102e-49
1.39889e-48
2.2503e-49
3.81325e-48
1.55696e-49
1.91406e-48
-9.63498e-50
2.41556e-49
3.2891e-49
3.25433e-48
1.36928e-49
3.45336e-49
-1.67835e-48
4.99101e-39
3.36231e-39
5.15396e-40
3.19327e-40
5.09444e-41
2.85474e-41
4.67214e-42
2.49182e-42
4.12536e-43
2.0549e-43
3.43796e-44
1.64325e-44
2.76549e-45
1.25263e-45
2.12199e-46
9.26668e-47
1.57624e-47
6.66051e-48
1.1304e-48
4.72618e-49
7.9236e-50
3.44429e-50
5.42204e-51
2.62269e-51
-2.07014e-52
3.91341e-52
-2.70559e-51
1.22561e-51
-1.18391e-50
7.92767e-51
-1.06817e-50
3.48075e-50
2.4464e-50
1.54514e-49
4.1418e-50
5.1346e-50
2.04844e-51
-2.34122e-49
-3.17422e-50
-1.90609e-49
-2.51248e-50
-2.32014e-50
2.3233e-51
8.15761e-50
1.95903e-50
8.62156e-50
1.06207e-51
-6.39541e-50
-1.92483e-50
-6.6272e-50
-7.59517e-51
7.29427e-50
9.14749e-51
9.00672e-50
8.78767e-51
3.16794e-50
2.24912e-51
-7.94722e-51
1.46981e-51
-2.96283e-51
8.74647e-51
-7.31722e-51
-2.49112e-51
-2.70588e-50
-3.41385e-50
-1.20485e-49
-2.4817e-50
1.06733e-49
1.51926e-50
2.51663e-49
1.00035e-50
1.25803e-49
-5.89728e-51
1.67554e-50
2.07176e-50
2.11768e-49
8.58091e-51
2.27134e-50
-1.0916e-49
3.66893e-41
3.05337e-39
4.45051e-42
2.87566e-40
4.96598e-43
2.55459e-41
4.99628e-44
2.22044e-42
4.74042e-45
1.82429e-43
4.18843e-46
1.45472e-44
3.5297e-47
1.10601e-45
2.81648e-48
8.15809e-47
2.16417e-49
5.78468e-48
1.62347e-50
3.98884e-49
1.21251e-51
2.66939e-50
9.04166e-53
1.75044e-51
-2.85315e-53
1.24152e-52
-1.67488e-52
8.39765e-53
-7.24894e-52
5.02112e-52
-6.51928e-52
2.19572e-51
1.49838e-51
9.68265e-51
2.53458e-51
3.20666e-51
1.25909e-52
-1.46747e-50
-1.94301e-51
-1.196e-50
-1.54039e-51
-1.46319e-51
1.399e-52
5.11958e-51
1.19937e-51
5.43531e-51
6.66636e-53
-3.99419e-51
-1.17729e-51
-4.14573e-51
-4.66465e-52
4.57211e-51
5.59702e-52
5.65564e-51
5.4109e-52
2.0199e-51
1.3826e-52
-5.21245e-52
8.56037e-53
-1.91582e-52
5.17224e-52
-4.56522e-52
-2.28953e-52
-1.65551e-51
-2.15042e-51
-7.32491e-51
-1.45884e-51
7.6503e-51
1.00015e-51
1.59949e-50
6.27947e-52
7.9655e-51
-3.52853e-52
1.12642e-51
1.27118e-51
1.32756e-50
5.24585e-52
1.43659e-51
-6.84756e-51
-4.31466e-39
-9.95886e-40
-4.40154e-40
-1.75811e-40
-4.3021e-41
-1.87991e-41
-3.9127e-42
-1.75191e-42
-3.42977e-43
-1.4868e-43
-2.84215e-44
-1.20622e-44
-2.27525e-45
-9.29048e-46
-1.73917e-46
-6.91902e-47
-1.28696e-47
-4.94527e-48
-9.15592e-49
-3.42744e-49
-6.31886e-50
-2.29224e-50
-4.21344e-51
-1.48894e-51
-2.7518e-52
-9.29407e-53
-2.71642e-53
-9.81092e-55
-4.39942e-53
3.05518e-53
-3.85617e-53
1.34843e-52
8.87894e-53
5.91443e-52
1.50069e-52
1.9531e-52
7.48617e-54
-8.96534e-52
-1.15084e-52
-7.31342e-52
-9.14119e-53
-8.9857e-53
8.12101e-54
3.13071e-52
7.10778e-53
3.33392e-52
4.08161e-54
-2.43327e-52
-6.96684e-53
-2.52874e-52
-2.77458e-53
2.79323e-52
3.31416e-53
3.46021e-52
3.22949e-53
1.2492e-52
8.22717e-54
-3.2792e-53
4.78146e-54
-1.19568e-53
2.95551e-53
-2.76655e-53
-1.80253e-53
-9.84088e-53
-1.30896e-52
-4.33118e-52
-8.28978e-53
5.28682e-52
6.32935e-53
9.91261e-52
3.8084e-53
4.91367e-52
-2.03783e-53
7.25488e-53
7.5528e-53
8.11139e-52
3.10123e-53
8.84616e-53
-4.18444e-52
-2.54548e-38
-8.60002e-39
-2.5236e-39
-1.23594e-39
-2.42971e-40
-1.24536e-40
-2.1693e-41
-1.13073e-41
-1.87853e-42
-9.43058e-43
-1.53555e-43
-7.56352e-44
-1.21674e-44
-5.76549e-45
-9.20016e-46
-4.25896e-46
-6.74822e-47
-3.02054e-47
-4.75782e-48
-2.08014e-48
-3.25839e-49
-1.38316e-49
-2.15607e-50
-8.94502e-51
-1.38807e-51
-5.60752e-52
-8.72361e-53
-3.39648e-53
-7.75373e-54
-1.93542e-55
-2.53119e-54
7.89984e-54
5.11553e-54
3.49656e-53
8.66884e-54
1.15156e-53
4.34025e-55
-5.30205e-53
-6.65067e-54
-4.329e-53
-5.29065e-54
-5.33923e-54
4.61838e-55
1.85391e-53
4.10896e-54
1.98225e-53
2.41775e-55
-1.43444e-53
-4.0231e-54
-1.49303e-53
-1.60866e-54
1.65199e-53
1.91471e-54
2.04971e-53
1.87721e-54
7.49848e-54
4.76819e-55
-2.01752e-54
2.602e-55
-7.26203e-55
1.64389e-54
-1.62263e-54
-1.30821e-54
-5.65825e-54
-7.77597e-54
-2.47635e-53
-4.57992e-54
3.48462e-53
3.90477e-54
5.94564e-53
2.25636e-54
2.9342e-53
-1.15016e-54
4.53661e-54
4.37566e-54
4.79782e-53
1.78941e-54
5.26656e-54
-2.47735e-53
4.68962e-38
-6.94379e-39
4.7475e-39
-4.8261e-40
4.6376e-40
-3.66405e-41
4.2003e-41
-2.9758e-42
3.67676e-42
-2.37835e-43
3.03717e-43
-1.87505e-44
2.42677e-44
-1.41621e-45
1.84974e-45
-1.04018e-46
1.36581e-46
-7.34081e-48
9.69095e-48
-5.035e-49
6.67285e-49
-3.33498e-50
4.43823e-50
-2.14949e-51
2.8699e-51
-1.34316e-52
1.79915e-52
-8.16267e-54
1.08492e-53
-3.77544e-55
5.28328e-55
4.36655e-55
3.26037e-55
2.01576e-54
4.88574e-55
6.62575e-55
2.45572e-56
-3.05881e-54
-3.73273e-55
-2.49941e-54
-2.97455e-55
-3.09275e-55
2.54436e-56
1.07072e-54
2.30761e-55
1.14833e-54
1.3977e-56
-8.25352e-55
-2.25622e-55
-8.60164e-55
-9.06363e-56
9.53075e-55
1.07447e-55
1.18413e-54
1.06096e-55
4.37649e-55
2.68441e-56
-1.19837e-55
1.36298e-56
-4.27466e-56
8.86437e-56
-9.25955e-56
-8.83e-56
-3.16462e-55
-4.48201e-55
-1.37808e-54
-2.45315e-55
2.22394e-54
2.3287e-55
3.47982e-54
1.29701e-55
1.70869e-54
-6.29284e-56
2.73754e-55
2.46329e-55
2.76827e-54
1.00234e-55
3.05604e-55
-1.43025e-54
1.01747e-37
4.59285e-40
1.02165e-38
1.49939e-39
9.92731e-40
1.83417e-40
8.94252e-41
1.75624e-41
7.79706e-42
1.48813e-42
6.41539e-43
1.19931e-43
5.11031e-44
9.15444e-45
3.88348e-45
6.7647e-46
2.86039e-46
4.7978e-47
2.0247e-47
3.30393e-48
1.39129e-48
2.19676e-49
9.23551e-50
1.42058e-50
5.96172e-51
8.90558e-52
3.73189e-52
5.43864e-53
2.27477e-53
3.23553e-54
1.34265e-54
2.13254e-55
9.38765e-56
1.23616e-55
3.10585e-56
3.7629e-56
1.58595e-57
-1.714e-55
-2.04477e-56
-1.40187e-55
-1.63274e-56
-1.73971e-56
1.37294e-57
6.00903e-56
1.26547e-56
6.46841e-56
7.84681e-58
-4.61245e-56
-1.23585e-56
-4.81414e-56
-4.98396e-57
5.34195e-56
5.88855e-57
6.64658e-56
5.84874e-57
2.48559e-56
1.47408e-57
-6.95739e-57
6.9468e-58
-2.45243e-57
4.6559e-57
-5.13129e-57
-5.67701e-57
-1.71741e-56
-2.52314e-56
-7.43874e-56
-1.27834e-56
1.36564e-55
1.35467e-56
1.97833e-55
7.28652e-57
9.66646e-56
-3.36566e-57
1.60689e-56
1.35369e-56
1.55176e-55
5.48446e-57
1.7212e-56
-8.02641e-56
-3.38627e-38
-5.30917e-39
-3.39261e-39
5.09445e-40
-3.29038e-40
8.00384e-41
-2.95922e-41
8.0746e-42
-2.57673e-42
6.94152e-43
-2.11766e-43
5.61849e-44
-1.68523e-44
4.29346e-45
-1.27956e-45
3.17342e-46
-9.41784e-47
2.25058e-47
-6.66203e-48
1.54965e-48
-4.5754e-49
1.03019e-49
-3.03572e-50
6.661e-51
-1.95882e-51
4.17513e-52
-1.22573e-52
2.54934e-53
-7.472e-54
1.51395e-54
-4.43326e-55
8.91138e-56
-2.47778e-56
1.11368e-56
-2.22187e-59
2.2961e-57
-7.69133e-60
-9.36759e-57
-1.09659e-57
-7.67698e-57
-8.7327e-58
-9.55127e-58
7.20107e-59
3.29271e-57
6.76008e-58
3.55508e-57
4.30294e-59
-2.51808e-57
-6.59279e-58
-2.6316e-57
-2.67019e-58
2.92378e-57
3.14332e-58
3.64248e-57
3.14249e-58
1.37545e-57
7.88396e-59
-3.91735e-58
3.41386e-59
-1.36789e-58
2.3762e-58
-2.771e-58
-3.47752e-58
-9.07645e-58
-1.38234e-57
-3.91146e-57
-6.4707e-58
8.14448e-57
7.64832e-58
1.0985e-56
3.98393e-58
5.33887e-57
-1.75049e-58
9.14534e-58
7.24775e-58
8.4939e-57
2.9218e-58
9.46022e-58
-4.39755e-57
-1.01185e-37
-1.88687e-38
-1.01428e-38
-2.07639e-39
-9.84236e-40
-1.94485e-40
-8.85547e-41
-1.7227e-41
-7.71375e-42
-1.42403e-42
-6.34143e-43
-1.13807e-43
-5.04785e-44
-8.65874e-45
-3.8336e-45
-6.3886e-46
-2.82217e-46
-4.52631e-47
-1.99669e-47
-3.11452e-48
-1.3715e-48
-2.06933e-49
-9.10081e-50
-1.33735e-50
-5.87296e-51
-8.37897e-52
-3.67532e-52
-5.11433e-53
-2.24049e-53
-3.03549e-54
-1.3284e-54
-1.75705e-55
-7.67951e-56
-9.59201e-57
-4.25866e-57
-4.39524e-58
-2.34943e-58
-5.29655e-58
-6.98516e-59
-4.11149e-58
-4.63032e-59
-5.11488e-59
3.66651e-60
1.75782e-58
3.5299e-59
1.90444e-58
2.29787e-60
-1.33892e-58
-3.43854e-59
-1.4013e-58
-1.39792e-59
1.55888e-58
1.64037e-59
1.94464e-58
1.64922e-59
7.4218e-59
4.11851e-60
-2.15632e-59
1.62924e-60
-7.44706e-60
1.18197e-59
-1.45688e-59
-2.05333e-59
-4.66513e-59
-7.40351e-59
-1.99943e-58
-3.18786e-59
4.69989e-58
4.21602e-59
5.94124e-58
2.13037e-59
2.8723e-58
-8.90483e-60
5.07218e-59
3.79252e-59
4.5291e-58
1.52194e-59
5.06151e-59
-2.34794e-58
3.57577e-38
-1.15513e-38
3.58041e-39
-9.11842e-40
3.47078e-40
-7.47685e-41
3.12029e-41
-6.29875e-42
2.71612e-42
-5.11997e-43
2.23167e-43
-4.06936e-44
1.77559e-44
-3.09068e-45
1.34794e-45
-2.27896e-46
9.91982e-47
-1.61421e-47
7.01635e-48
-1.11053e-48
4.81831e-49
-7.37754e-50
3.19665e-50
-4.7673e-51
2.06254e-51
-2.98652e-52
1.29058e-52
-1.82269e-53
7.86658e-54
-1.0817e-54
4.66368e-55
-6.26291e-56
2.69773e-56
-3.5177e-57
1.5248e-57
-1.89317e-58
8.39849e-59
-3.65641e-59
1.60441e-60
-2.19131e-59
-2.09038e-60
-2.69671e-60
1.97652e-61
9.17192e-60
1.80009e-60
9.96746e-60
1.20017e-61
-6.96159e-60
-1.75044e-60
-7.2955e-60
-7.14504e-61
8.12505e-60
8.35599e-61
1.01479e-59
8.45201e-61
3.90886e-60
2.0999e-61
-1.15493e-60
7.49317e-62
-3.95132e-61
5.72154e-61
-7.47493e-61
-1.16791e-60
-2.33744e-60
-3.86793e-60
-9.96332e-60
-1.5272e-60
2.64025e-59
2.26227e-60
3.14168e-59
1.11133e-60
1.51038e-59
-4.41566e-61
2.73673e-60
1.93743e-60
2.36081e-59
7.73611e-61
2.64599e-60
-1.22532e-59
1.00538e-37
2.69083e-40
1.00646e-38
1.48918e-39
9.75887e-40
1.82525e-40
8.77244e-41
1.74775e-41
7.63664e-42
1.48017e-42
6.27378e-43
1.1924e-43
4.99139e-44
9.09744e-45
3.78866e-45
6.72035e-46
2.78784e-46
4.76477e-47
1.97151e-47
3.28041e-48
1.35367e-48
2.18062e-49
8.97906e-50
1.40991e-50
5.79239e-51
8.83735e-52
3.62366e-52
5.3963e-53
2.20831e-53
3.20412e-54
1.30891e-54
1.85616e-55
7.56913e-56
1.04815e-56
4.26715e-57
5.78453e-58
2.35022e-58
2.9821e-59
1.2497e-59
5.54055e-61
5.49038e-61
-5.14478e-62
4.33465e-62
4.71632e-61