/*--------------------------------*- C++ -*----------------------------------*\
| =========                 |                                                 |
| \\      /  F ield         | OpenFOAM: The Open Source CFD Toolbox           |
|  \\    /   O peration     | Version:  2.4.0                                 |
|   \\  /    A nd           | Web:      www.OpenFOAM.org                      |
|    \\/     M anipulation  |                                                 |
\*---------------------------------------------------------------------------*/
FoamFile
{
    version     2.0;
    format      ascii;
    class       volVectorField;
    location    "0.7";
    object      U;
}
// * * * * * * * * * * * * * * * * * * * * * * * * * * * * * * * * * * * * * //

dimensions      [0 1 -1 0 0 0 0];

internalField   nonuniform List<vector> 
1935
(
(4.73036e-34 1.40796e-38 0)
(8.16887e-35 -4.43289e-35 0)
(1.56696e-35 -8.38059e-36 0)
(2.16353e-36 -6.30894e-36 0)
(-5.40992e-36 -4.58401e-35 0)
(-2.43647e-34 -4.65422e-34 0)
(-5.36605e-33 -3.57959e-33 0)
(-8.612e-32 -3.20422e-32 0)
(-9.34755e-31 -1.37849e-31 0)
(-8.32889e-32 -1.28662e-30 0)
(1.77737e-32 -5.81058e-30 0)
(-3.66974e-33 -6.48447e-29 0)
(-4.76689e-32 1.39542e-30 0)
(-2.45837e-33 6.63815e-29 0)
(2.37154e-32 5.98338e-30 0)
(2.90237e-33 1.35039e-30 0)
(-3.29735e-36 2.7543e-31 0)
(-2.76549e-33 1.33307e-30 0)
(-2.2842e-32 5.00195e-30 0)
(3.49599e-32 6.63301e-29 0)
(8.22256e-32 -8.6099e-29 0)
(-2.77925e-32 -1.5986e-28 0)
(-8.28534e-32 -1.00937e-29 0)
(2.9492e-32 6.7695e-29 0)
(8.3404e-32 -9.04719e-29 0)
(-5.68775e-32 -1.64224e-28 0)
(-6.21684e-32 6.89134e-29 0)
(1.51204e-32 2.86887e-30 0)
(-1.16963e-31 5.80895e-31 0)
(-1.30907e-30 -9.11876e-30 0)
(-1.2398e-31 -8.9401e-29 0)
(-3.95544e-32 -8.07756e-30 0)
(-4.28262e-33 -1.7834e-30 0)
(-5.38014e-34 -1.91811e-31 0)
(3.27521e-38 -5.2124e-32 0)
(5.28559e-34 -1.79561e-31 0)
(3.69844e-33 -1.73262e-30 0)
(3.01388e-32 -6.60363e-30 0)
(-4.57945e-32 -8.74645e-29 0)
(-1.08629e-31 1.12755e-28 0)
(3.23734e-32 2.11616e-28 0)
(7.65805e-32 2.03389e-29 0)
(9.2314e-33 4.73621e-30 0)
(3.87524e-33 -1.60428e-38 0)
(3.07707e-32 -1.94214e-38 0)
(1.9576e-31 -4.81618e-39 0)
(1.42248e-30 -1.09258e-39 0)
(6.51912e-34 -4.09322e-34 0)
(4.91473e-33 -3.17127e-33 0)
(3.00715e-32 -2.43762e-32 0)
(1.95257e-31 -1.39467e-31 0)
(1.17915e-34 -7.11308e-35 0)
(8.28662e-34 -5.3721e-34 0)
(4.47937e-33 -3.9043e-33 0)
(2.49411e-32 -2.12896e-32 0)
(1.45116e-35 -1.12042e-35 0)
(9.39315e-35 -9.56545e-35 0)
(4.71161e-34 -6.83772e-34 0)
(2.31565e-33 -3.4758e-33 0)
(-1.83837e-36 2.11642e-35 0)
(6.16044e-36 2.01247e-35 0)
(4.74775e-35 -7.19534e-35 0)
(2.31669e-34 -3.83794e-34 0)
(-2.18658e-34 2.18455e-34 0)
(-8.07964e-35 3.06693e-34 0)
(-3.89393e-35 5.77016e-35 0)
(1.1387e-35 -3.08266e-35 0)
(-5.06062e-33 1.31003e-33 0)
(-1.31204e-33 1.97131e-33 0)
(-4.76093e-34 4.09316e-34 0)
(-8.5683e-35 7.13807e-35 0)
(-8.29655e-32 9.57386e-33 0)
(-1.58344e-32 1.49183e-32 0)
(-3.76897e-33 2.66845e-33 0)
(-5.91486e-34 4.67957e-34 0)
(-9.05993e-31 -2.76737e-32 0)
(-1.21769e-31 -4.90104e-33 0)
(-2.7279e-32 -6.49808e-34 0)
(-3.82618e-33 -8.36258e-35 0)
(4.5267e-32 -2.43415e-31 0)
(1.0687e-32 -5.16274e-32 0)
(1.26381e-33 -7.02029e-33 0)
(1.06724e-34 -9.84909e-34 0)
(1.00824e-30 -9.79378e-31 0)
(1.75905e-31 -9.93605e-32 0)
(3.15248e-32 -7.27219e-33 0)
(4.09912e-33 -4.01732e-34 0)
(-1.55683e-31 -7.46082e-30 0)
(-3.17216e-32 -6.17351e-31 0)
(-6.04583e-33 -3.78789e-32 0)
(-8.40488e-34 -1.38689e-33 0)
(-2.09393e-30 1.68491e-31 0)
(-3.68167e-31 1.4632e-32 0)
(-6.67347e-32 9.58127e-34 0)
(-8.76328e-33 4.34753e-35 0)
(-1.12867e-31 7.65315e-30 0)
(-2.40692e-32 6.34405e-31 0)
(-4.6251e-33 3.90077e-32 0)
(-6.49749e-34 1.43659e-33 0)
(1.03884e-30 1.00718e-30 0)
(1.81885e-31 1.00898e-31 0)
(3.28596e-32 7.19024e-33 0)
(4.30128e-33 3.5591e-34 0)
(1.31604e-31 2.39589e-31 0)
(2.72309e-32 3.76323e-32 0)
(5.17168e-33 4.4635e-33 0)
(7.18083e-34 5.30001e-34 0)
(1.05824e-34 5.50895e-32 0)
(6.46413e-35 9.6365e-33 0)
(2.07718e-35 1.26501e-33 0)
(4.05352e-36 1.61122e-34 0)
(-1.21908e-31 2.31738e-31 0)
(-2.49281e-32 3.54747e-32 0)
(-4.63248e-33 4.09426e-33 0)
(-6.32911e-34 4.74924e-34 0)
(-9.90568e-31 8.21938e-31 0)
(-1.6717e-31 6.3524e-32 0)
(-2.97293e-32 2.03959e-33 0)
(-3.82045e-33 -3.29705e-34 0)
(1.54677e-30 7.15892e-30 0)
(2.81752e-31 5.49334e-31 0)
(5.16661e-32 2.97463e-32 0)
(6.88136e-33 5.01316e-34 0)
(3.60932e-30 -1.03866e-29 0)
(6.33756e-31 -9.01395e-31 0)
(1.14762e-31 -5.90374e-32 0)
(1.50557e-32 -2.70164e-33 0)
(-1.21641e-30 -1.88121e-29 0)
(-2.12869e-31 -1.58466e-30 0)
(-3.8424e-32 -9.93323e-32 0)
(-5.02566e-33 -3.89678e-33 0)
(-3.629e-30 -1.73845e-30 0)
(-6.34836e-31 -2.11502e-31 0)
(-1.14665e-31 -2.00025e-32 0)
(-1.50051e-32 -1.84353e-33 0)
(1.28938e-30 7.09308e-30 0)
(2.2542e-31 5.0045e-31 0)
(4.0645e-32 2.15759e-32 0)
(5.31163e-33 -6.72102e-34 0)
(3.65025e-30 -1.08578e-29 0)
(6.34292e-31 -9.30194e-31 0)
(1.14355e-31 -5.96047e-32 0)
(1.49263e-32 -2.51351e-33 0)
(-2.49342e-30 -1.90185e-29 0)
(-4.33408e-31 -1.59799e-30 0)
(-7.82748e-32 -1.00947e-31 0)
(-1.02313e-32 -4.18151e-33 0)
(-2.71812e-30 7.14012e-30 0)
(-4.82255e-31 5.45836e-31 0)
(-8.76351e-32 3.07491e-32 0)
(-1.15471e-32 8.47893e-34 0)
(9.83873e-31 5.16409e-31 0)
(1.62082e-31 2.02367e-32 0)
(2.84104e-32 -2.86707e-33 0)
(3.59287e-33 -8.87193e-34 0)
(1.74751e-31 4.06998e-32 0)
(3.76915e-32 1.5654e-32 0)
(5.91444e-33 2.46666e-33 0)
(7.0888e-34 4.52139e-34 0)
(1.06718e-31 -1.47042e-30 0)
(7.21198e-32 -1.46003e-31 0)
(5.53743e-33 -1.04606e-32 0)
(3.68319e-34 -5.39011e-34 0)
(-1.37756e-31 -1.0432e-29 0)
(-2.59959e-32 -9.07814e-31 0)
(-6.00719e-33 -6.11005e-32 0)
(-9.28179e-34 -3.25306e-33 0)
(-1.4068e-30 -1.36827e-30 0)
(-2.48027e-31 -1.42444e-31 0)
(-4.53023e-32 -1.09251e-32 0)
(-5.98518e-33 -6.86405e-34 0)
(-1.79676e-31 -3.16878e-31 0)
(-3.7356e-32 -5.01759e-32 0)
(-7.16694e-33 -5.99699e-33 0)
(-1.00324e-33 -7.19961e-34 0)
(-2.72936e-32 -3.86598e-32 0)
(-5.91229e-33 -6.93017e-33 0)
(-1.22203e-33 -9.28397e-34 0)
(-1.79485e-34 -1.20888e-34 0)
(-6.72395e-35 -1.08017e-32 0)
(-1.90756e-35 -2.14909e-33 0)
(-5.7227e-36 -3.09012e-34 0)
(-1.05432e-36 -4.28767e-35 0)
(2.67958e-32 -3.5823e-32 0)
(5.73768e-33 -6.20247e-33 0)
(1.16991e-33 -8.07644e-34 0)
(1.69807e-34 -1.0202e-34 0)
(1.63666e-31 -3.00367e-31 0)
(3.3541e-32 -4.57417e-32 0)
(6.25324e-33 -5.24976e-33 0)
(8.56676e-34 -6.0556e-34 0)
(1.30712e-30 -1.08511e-30 0)
(2.20666e-31 -8.39708e-32 0)
(3.92485e-32 -2.71185e-33 0)
(5.04462e-33 4.3242e-34 0)
(-2.02677e-30 -9.44278e-30 0)
(-3.69364e-31 -7.2443e-31 0)
(-6.77551e-32 -3.91801e-32 0)
(-9.02732e-33 -6.4958e-34 0)
(-4.77226e-30 1.36171e-29 0)
(-8.39081e-31 1.18497e-30 0)
(-1.52086e-31 7.8027e-32 0)
(-1.99702e-32 3.63803e-33 0)
(1.4146e-30 2.50037e-29 0)
(2.42257e-31 2.12789e-30 0)
(4.35102e-32 1.35917e-31 0)
(5.64861e-33 5.75699e-33 0)
(3.36553e-30 3.45067e-30 0)
(5.96798e-31 3.69515e-31 0)
(1.08434e-31 2.94762e-32 0)
(1.42848e-32 2.00165e-33 0)
(4.10803e-31 8.54169e-31 0)
(8.57417e-32 1.29249e-31 0)
(1.65065e-32 1.48454e-32 0)
(2.3197e-33 1.69524e-33 0)
(6.34727e-30 -1.95406e-40 0)
(5.63333e-29 -4.63751e-41 0)
(5.12182e-29 6.1864e-41 0)
(-5.1035e-29 6.32847e-41 0)
(-5.49846e-29 -2.99753e-41 0)
(1.6035e-31 -6.81575e-41 0)
(5.63534e-29 -3.51994e-41 0)
(5.75192e-29 2.91048e-41 0)
(6.45948e-30 3.44292e-41 0)
(1.34377e-30 5.33391e-42 0)
(1.60019e-31 8.55625e-43 0)
(2.19741e-32 -1.51197e-43 0)
(-2.18503e-33 -3.28023e-42 0)
(-4.22955e-32 -4.07728e-41 0)
(-2.97856e-31 -4.82936e-40 0)
(-2.52961e-30 -5.01299e-39 0)
(-1.15947e-29 -4.1249e-38 0)
(-1.08712e-28 -2.01716e-40 0)
(-5.63306e-29 9.59002e-36 0)
(5.11976e-29 2.86173e-34 0)
(6.14874e-29 5.45975e-33 0)
(5.88526e-29 7.76021e-32 0)
(7.94322e-30 7.58848e-31 0)
(7.85581e-30 7.76117e-32 0)
(5.78406e-29 5.73634e-33 0)
(5.76988e-29 5.45975e-33 0)
(6.47548e-30 7.2152e-32 0)
(1.35735e-30 6.81245e-31 0)
(1.75579e-31 -6.81245e-31 0)
(5.85861e-32 -7.21326e-32 0)
(3.20215e-31 -4.88026e-33 0)
(2.67583e-30 5.32033e-33 0)
(1.28538e-29 7.95517e-32 0)
(1.14283e-28 7.78197e-31 0)
(1.11232e-28 8.50114e-32 0)
(-3.44543e-29 8.31893e-32 0)
(4.7407e-29 7.58862e-31 0)
(-6.14616e-30 7.24227e-32 0)
(-1.03547e-28 -6.68833e-32 0)
(-1.03721e-29 -6.81518e-31 0)
(8.23797e-31 -8.68586e-31 0)
(5.16295e-30 -6.48104e-31 0)
(4.5057e-30 1.66412e-30 0)
(-4.47736e-30 1.64628e-30 0)
(-4.97747e-30 -7.77528e-31 0)
(2.46914e-32 -1.75757e-30 0)
(5.16615e-30 -9.04629e-31 0)
(5.32335e-30 7.57706e-31 0)
(8.42014e-31 8.86595e-31 0)
(1.84664e-31 1.29101e-31 0)
(2.46341e-32 2.00601e-32 0)
(3.50104e-33 2.30259e-33 0)
(-3.66586e-34 7.50093e-34 0)
(-6.72717e-33 4.27729e-33 0)
(-4.57317e-32 3.78817e-32 0)
(-3.45043e-31 2.38375e-31 0)
(-1.50246e-30 1.64604e-30 0)
(-9.82499e-30 6.46148e-31 0)
(-5.16253e-30 -2.46196e-30 0)
(4.5022e-30 -1.88913e-30 0)
(5.82494e-30 -1.48636e-31 0)
(5.49639e-30 8.5779e-31 0)
(1.04813e-30 8.52357e-31 0)
(1.045e-30 -7.46578e-31 0)
(5.37408e-30 -7.56134e-31 0)
(5.35012e-30 7.80842e-31 0)
(8.36102e-31 8.99196e-31 0)
(1.96842e-31 1.95507e-31 0)
(3.71379e-32 -4.66065e-32 0)
(8.05219e-34 -1.23346e-32 0)
(4.78041e-32 -4.03604e-32 0)
(3.65574e-31 -2.5137e-31 0)
(1.6622e-30 -1.68201e-30 0)
(1.05521e-29 -6.83363e-31 0)
(1.01793e-29 2.30592e-30 0)
(-2.34559e-30 1.05298e-30 0)
(4.0273e-30 -2.18655e-31 0)
(-7.8243e-31 2.27179e-30 0)
(-9.14985e-30 1.09441e-31 0)
(-1.32032e-30 -1.29217e-30 0)
(6.84189e-32 -1.14122e-31 0)
(3.13272e-31 -8.0595e-32 0)
(2.66289e-31 2.17398e-31 0)
(-2.61955e-31 2.14561e-31 0)
(-2.89095e-31 -1.00417e-31 0)
(3.70974e-33 -2.31505e-31 0)
(3.13783e-31 -1.19854e-31 0)
(3.33612e-31 9.72444e-32 0)
(7.09783e-32 1.16983e-31 0)
(2.40013e-32 1.97752e-32 0)
(3.6987e-33 3.21362e-33 0)
(5.9378e-34 3.91074e-34 0)
(-6.61408e-35 1.3048e-34 0)
(-1.13895e-33 7.24693e-34 0)
(-6.7969e-33 6.04766e-33 0)
(-4.43667e-32 3.63772e-32 0)
(-1.18474e-31 2.14519e-31 0)
(-5.99202e-31 8.02549e-32 0)
(-3.13167e-31 -3.21071e-31 0)
(2.65696e-31 -2.51678e-31 0)
(3.61028e-31 -2.27487e-32 0)
(3.56079e-31 1.12937e-31 0)
(9.81418e-32 1.15521e-31 0)
(9.76477e-32 -9.48932e-32 0)
(3.41234e-31 -9.68042e-32 0)
(3.37696e-31 1.01132e-31 0)
(7.03913e-32 1.19432e-31 0)
(2.56378e-32 3.29913e-32 0)
(5.39077e-33 -1.00473e-32 0)
(5.23997e-34 -2.39678e-33 0)
(6.93638e-33 -6.57276e-33 0)
(4.59014e-32 -3.82994e-32 0)
(1.28607e-31 -2.20753e-31 0)
(6.56567e-31 -1.07386e-31 0)
(6.55295e-31 2.96745e-31 0)
(-9.88686e-32 1.43468e-31 0)
(2.42518e-31 -1.1312e-32 0)
(-6.28961e-32 2.92839e-31 0)
(-5.54729e-31 1.64667e-32 0)
(-1.21877e-31 -1.64109e-31 0)
(4.28552e-33 -1.7614e-32 0)
(1.33959e-32 -1.22484e-32 0)
(1.11032e-32 3.36105e-32 0)
(-1.06384e-32 3.31147e-32 0)
(-1.11152e-32 -1.54778e-32 0)
(3.93267e-34 -3.58392e-32 0)
(1.34525e-32 -1.86347e-32 0)
(1.52656e-32 1.49207e-32 0)
(4.54916e-33 1.81327e-32 0)
(2.25834e-33 3.219e-33 0)
(3.9189e-34 5.65098e-34 0)
(6.76778e-35 7.24426e-35 0)
(-7.91304e-36 2.52699e-35 0)
(-1.29617e-34 1.33671e-34 0)
(-7.15275e-34 1.06004e-33 0)
(-4.13226e-33 5.8807e-33 0)
(-6.8987e-33 3.31066e-32 0)
(-2.62884e-32 1.21873e-32 0)
(-1.33823e-32 -4.96614e-32 0)
(1.10335e-32 -3.91331e-32 0)
(1.57632e-32 -3.755e-33 0)
(1.72978e-32 1.72976e-32 0)
(7.13849e-33 1.71019e-32 0)
(7.16234e-33 -1.46314e-32 0)
(1.60834e-32 -1.4854e-32 0)
(1.56955e-32 1.55957e-32 0)
(4.44234e-33 1.8455e-32 0)
(2.49682e-33 4.63994e-33 0)
(6.36782e-34 -8.64231e-34 0)
(1.75409e-35 -3.0957e-34 0)
(7.10141e-34 -1.12225e-33 0)
(4.20815e-33 -6.06635e-33 0)
(7.39066e-33 -3.3552e-32 0)
(2.96714e-32 -1.2795e-32 0)
(3.19619e-32 4.62921e-32 0)
(-1.67195e-33 2.25601e-32 0)
(1.09919e-32 -1.83421e-33 0)
(-3.66173e-33 4.51488e-32 0)
(-2.44891e-32 3.00659e-33 0)
(-8.87169e-33 -2.43722e-32 0)
(2.55752e-34 -1.83104e-33 0)
(1.82933e-34 -1.24244e-33 0)
(1.27671e-34 3.49258e-33 0)
(-7.58169e-35 3.43533e-33 0)
(4.94467e-35 -1.60061e-33 0)
(4.33949e-35 -3.73511e-33 0)
(1.89434e-34 -1.94996e-33 0)
(3.69513e-34 1.53599e-33 0)
(2.84456e-34 1.89195e-33 0)
(2.29524e-34 3.56845e-34 0)
(4.32206e-35 6.56232e-35 0)
(7.96612e-36 8.78637e-36 0)
(-9.64267e-37 3.15058e-36 0)
(-1.5242e-35 1.61656e-35 0)
(-7.83714e-35 1.22752e-34 0)
(-4.16736e-34 6.49037e-34 0)
(-3.46257e-34 3.43433e-33 0)
(-4.87633e-34 1.2351e-33 0)
(-1.81145e-34 -5.15977e-33 0)
(1.1948e-34 -4.10081e-33 0)
(2.46963e-34 -4.17361e-34 0)
(5.75498e-34 1.80167e-33 0)
(5.50057e-34 1.81987e-33 0)
(5.52654e-34 -1.49571e-33 0)
(4.59682e-34 -1.526e-33 0)
(4.17475e-34 1.61654e-33 0)
(2.74725e-34 1.93462e-33 0)
(2.54585e-34 5.46346e-34 0)
(6.90237e-35 -1.24899e-34 0)
(4.58976e-36 -4.08653e-35 0)
(7.5878e-35 -1.30362e-34 0)
(4.13266e-34 -6.62347e-34 0)
(3.24149e-34 -3.45316e-33 0)
(6.6238e-34 -1.21118e-33 0)
(1.13275e-33 4.82139e-33 0)
(3.14634e-34 2.40426e-33 0)
(2.94686e-34 -5.05885e-35 0)
(-1.92626e-34 4.67756e-33 0)
(-5.10969e-34 3.44178e-34 0)
(-6.89932e-34 -2.51076e-33 0)
(1.35462e-35 -2.00914e-34 0)
(-2.89133e-35 -1.35909e-34 0)
(-2.62746e-35 3.87161e-34 0)
(3.11682e-35 3.80329e-34 0)
(4.9397e-35 -1.77086e-34 0)
(4.09271e-36 -4.14326e-34 0)
(-2.80625e-35 -2.16953e-34 0)
(-1.23303e-35 1.69373e-34 0)
(1.79306e-35 2.10048e-34 0)
(2.04127e-35 4.07862e-35 0)
(4.07469e-36 7.84e-36 0)
(7.80929e-37 1.08349e-36 0)
(-9.72065e-38 3.98743e-37 0)
(-1.49293e-36 1.98799e-36 0)
(-7.35781e-36 1.46341e-35 0)
(-3.6842e-35 7.38548e-35 0)
(-1.61186e-35 3.80199e-34 0)
(3.95188e-35 1.35232e-34 0)
(2.88748e-35 -5.72183e-34 0)
(-2.70648e-35 -4.5621e-34 0)
(-3.03524e-35 -4.80691e-35 0)
(5.52117e-36 1.98781e-34 0)
(4.17194e-35 1.99192e-34 0)
(4.23845e-35 -1.65046e-34 0)
(-3.76901e-36 -1.68203e-34 0)
(-7.81863e-36 1.78984e-34 0)
(1.67901e-35 2.14737e-34 0)
(2.31285e-35 5.98668e-35 0)
(6.86235e-36 -1.13656e-35 0)
(2.38496e-37 -4.42728e-36 0)
(6.93717e-36 -1.52555e-35 0)
(3.58284e-35 -7.36696e-35 0)
(1.06174e-35 -3.74864e-34 0)
(-3.07617e-35 -9.21817e-35 0)
(2.10585e-35 5.41246e-34 0)
(4.41655e-35 2.70707e-34 0)
(-3.97321e-36 -2.93517e-36 0)
(-9.12089e-36 5.18235e-34 0)
(2.91296e-35 4.17184e-35 0)
(-5.30837e-35 -2.73634e-34 0)
(-1.38206e-35 -9.12086e-36 0)
(-6.39611e-36 -1.12881e-35 0)
(-4.19699e-36 3.59205e-35 0)
(4.41376e-36 3.51465e-35 0)
(6.4231e-36 -1.6333e-35 0)
(3.89051e-37 -3.8377e-35 0)
(-4.45463e-36 -2.01508e-35 0)
(-3.02068e-36 1.55725e-35 0)
(1.32811e-36 1.94709e-35 0)
(1.88039e-36 3.90984e-36 0)
(3.87445e-37 7.74569e-37 0)
(7.64411e-38 1.10028e-37 0)
(-9.69562e-39 4.12512e-38 0)
(-1.46061e-37 2.01457e-37 0)
(-6.97372e-37 1.44306e-36 0)
(-3.38243e-36 7.05776e-36 0)
(-8.41191e-37 3.51219e-35 0)
(7.08059e-36 1.23158e-35 0)
(4.53425e-36 -5.2926e-35 0)
(-4.04738e-36 -4.23967e-35 0)
(-4.98701e-36 -4.61599e-36 0)
(-1.37689e-36 1.84097e-35 0)
(3.52769e-36 1.87319e-35 0)
(3.58986e-36 -1.50932e-35 0)
(-2.20669e-36 -1.54393e-35 0)
(-2.58911e-36 1.65391e-35 0)
(1.2297e-36 1.99749e-35 0)
(2.13249e-36 5.96122e-36 0)
(6.46371e-37 -1.28939e-36 0)
(3.39156e-38 -4.74124e-37 0)
(6.41023e-37 -1.49894e-36 0)
(3.21039e-36 -6.92511e-36 0)
(-6.69629e-38 -3.41259e-35 0)
(-6.5672e-36 -6.19919e-36 0)
(-1.11007e-36 5.04817e-35 0)
(4.75125e-36 2.55122e-35 0)
(-1.5811e-36 6.38462e-37 0)
(-5.14654e-37 4.79012e-35 0)
(5.73988e-36 4.09993e-36 0)
(-4.51346e-36 -2.52237e-35 0)
(-8.77312e-35 5.45732e-35 0)
(-1.07989e-35 5.21639e-36 0)
(-1.57278e-36 4.00077e-36 0)
(2.92673e-37 3.3612e-36 0)
(5.79135e-37 -1.52726e-36 0)
(3.22777e-38 -3.60816e-36 0)
(-4.26393e-37 -1.8986e-36 0)
(-3.07517e-37 1.45799e-36 0)
(1.0048e-37 1.83191e-36 0)
(1.57166e-37 3.75087e-37 0)
(3.32396e-38 7.61986e-38 0)
(6.68775e-39 1.10372e-38 0)
(-8.62462e-40 4.20228e-39 0)
(-1.27725e-38 2.01734e-38 0)
(-5.96946e-38 1.41767e-37 0)
(-2.81899e-37 6.75262e-37 0)
(-4.94971e-38 3.29771e-36 0)
(6.90916e-37 1.14691e-36 0)
(4.33259e-37 -4.97509e-36 0)
(-3.82372e-37 -3.99475e-36 0)
(-4.8159e-37 -4.44644e-37 0)
(-1.72348e-37 1.72607e-36 0)
(2.84923e-37 1.7535e-36 0)
(2.92297e-37 -1.41231e-36 0)
(-2.3735e-37 -1.44476e-36 0)
(-2.70554e-37 1.55324e-36 0)
(9.09436e-38 1.88026e-36 0)
(1.80555e-37 5.63399e-37 0)
(5.7211e-38 -1.13353e-37 0)
(1.83323e-39 -4.49896e-38 0)
(5.34142e-38 -1.44929e-37 0)
(2.62173e-37 -6.46784e-37 0)
(-4.94908e-38 -3.13595e-36 0)
(-6.56453e-37 -2.38116e-37 0)
(-1.70093e-37 4.80857e-36 0)
(4.1407e-37 2.43073e-36 0)
(-1.64425e-37 8.68978e-38 0)
(-2.95826e-38 4.50088e-36 0)
(5.67833e-37 4.05803e-37 0)
(-3.66988e-37 -2.34858e-36 0)
(-5.46096e-34 -8.87695e-36 0)
(-6.12618e-35 -9.48309e-37 0)
(-6.92525e-36 2.05634e-37 0)
(-6.52585e-37 2.70735e-37 0)
(-1.66067e-38 -1.29432e-37 0)
(-3.25627e-39 -3.04234e-37 0)
(-3.75885e-38 -1.60347e-37 0)
(-2.72699e-38 1.22291e-37 0)
(8.01248e-39 1.545e-37 0)
(1.30797e-38 3.23134e-38 0)
(2.81064e-39 6.68757e-39 0)
(5.74136e-40 9.85893e-40 0)
(-7.49209e-41 3.79881e-40 0)
(-1.09616e-39 1.79941e-39 0)
(-5.03869e-39 1.24265e-38 0)
(-2.34193e-38 5.80553e-38 0)
(-3.44029e-39 2.77485e-37 0)
(6.04027e-38 9.55754e-38 0)
(3.76536e-38 -4.19017e-37 0)
(-3.30871e-38 -3.37473e-37 0)
(-4.20004e-38 -3.83347e-38 0)
(-1.59948e-38 1.45532e-37 0)
(2.33952e-38 1.49463e-37 0)
(2.40296e-38 -1.17961e-37 0)
(-2.12901e-38 -1.2102e-37 0)
(-2.40929e-38 1.30755e-37 0)
(7.23908e-39 1.58994e-37 0)
(1.50493e-38 4.97831e-38 0)
(4.82812e-39 -1.08908e-38 0)
(1.80274e-40 -4.16565e-39 0)
(4.38752e-39 -1.26113e-38 0)
(2.12604e-38 -5.45019e-38 0)
(-7.16252e-39 -2.5902e-37 0)
(-5.77731e-38 1.88639e-39 0)
(-1.47361e-38 4.09418e-37 0)
(3.52639e-38 2.07838e-37 0)
(-1.44843e-38 1.23644e-38 0)
(-2.08508e-39 3.79014e-37 0)
(4.97427e-38 3.55033e-38 0)
(-3.01361e-38 -1.97487e-37 0)
(-2.44339e-36 -1.07053e-34 0)
(-1.52634e-36 -1.11625e-35 0)
(-3.2023e-37 -1.03745e-36 0)
(-3.94564e-38 -7.59741e-38 0)
(-1.13715e-39 -1.93851e-38 0)
(-3.07377e-40 -2.61492e-38 0)
(-2.95262e-39 -1.34753e-38 0)
(-2.14994e-39 1.01803e-38 0)
(6.06663e-40 1.29142e-38 0)
(1.01089e-39 2.73887e-39 0)
(2.20629e-40 5.75444e-40 0)
(4.5591e-41 8.59304e-41 0)
(-6.01507e-42 3.34313e-41 0)
(-8.70159e-41 1.56656e-40 0)
(-3.94986e-40 1.06826e-39 0)
(-1.80683e-39 4.91256e-39 0)
(-2.41893e-40 2.31596e-38 0)
(4.73634e-39 7.92631e-39 0)
(2.94822e-39 -3.49993e-38 0)
(-2.58428e-39 -2.82404e-38 0)
(-3.29699e-39 -3.25614e-39 0)
(-1.28772e-39 1.21423e-38 0)
(1.79804e-39 1.24812e-38 0)
(1.85739e-39 -9.8129e-39 0)
(-1.67768e-39 -1.00733e-38 0)
(-1.89981e-39 1.09154e-38 0)
(5.40793e-40 1.33004e-38 0)
(1.17399e-39 4.20287e-39 0)
(3.87374e-40 -8.97756e-40 0)
(8.3195e-42 -3.54615e-40 0)
(3.34176e-40 -1.06812e-39 0)
(1.60369e-39 -4.49677e-39 0)
(-7.29224e-40 -2.11234e-38 0)
(-4.53753e-39 2.49982e-39 0)
(-1.06075e-39 3.46667e-38 0)
(2.746e-39 1.75725e-38 0)
(-1.12487e-39 1.21746e-39 0)
(-1.34691e-40 3.1651e-38 0)
(3.90465e-39 3.06273e-39 0)
(-2.3239e-39 -1.64048e-38 0)
(4.83283e-34 -1.29866e-35 0)
(4.81732e-35 -6.32243e-38 0)
(4.65982e-36 3.1495e-38 0)
(4.16714e-37 4.69146e-39 0)
(3.63802e-38 -6.41887e-40 0)
(2.96103e-39 -1.96067e-39 0)
(1.18137e-41 -1.04046e-39 0)
(-1.46276e-40 7.85973e-40 0)
(4.68537e-41 1.00059e-39 0)
(7.67695e-41 2.15326e-40 0)
(1.69246e-41 4.57779e-41 0)
(3.52883e-42 6.91773e-42 0)
(-4.6934e-43 2.71258e-42 0)
(-6.73286e-42 1.25992e-41 0)
(-3.02548e-41 8.49078e-41 0)
(-1.36879e-40 3.85704e-40 0)
(-1.74576e-41 1.79145e-39 0)
(3.60865e-40 6.08813e-40 0)
(2.24551e-40 -2.70905e-39 0)
(-1.96541e-40 -2.19063e-39 0)
(-2.51425e-40 -2.56029e-40 0)
(-9.89626e-41 9.40894e-40 0)
(1.36035e-40 9.75072e-40 0)
(1.40748e-40 -7.54706e-40 0)
(-1.27908e-40 -7.76564e-40 0)
(-1.44965e-40 8.44678e-40 0)
(4.05147e-41 1.03264e-39 0)
(8.92765e-41 3.36575e-40 0)
(2.97874e-41 -7.61944e-41 0)
(5.97904e-43 -2.93218e-41 0)
(2.48472e-41 -8.40766e-41 0)
(1.18399e-40 -3.45075e-40 0)
(-6.9633e-41 -1.59903e-39 0)
(-3.45817e-40 3.48099e-40 0)
(-6.8856e-41 2.71631e-39 0)
(2.1056e-40 1.37794e-39 0)
(-8.46295e-41 1.18842e-40 0)
(-9.3981e-42 2.44993e-39 0)
(2.97314e-40 2.43103e-40 0)
(-1.75812e-40 -1.26898e-39 0)
(-1.0348e-34 2.97251e-35 0)
(-1.07729e-35 1.02462e-35 0)
(-1.07899e-36 1.16388e-36 0)
(-9.97406e-38 1.09218e-37 0)
(-8.88129e-39 9.10208e-39 0)
(-7.46568e-40 5.85464e-40 0)
(-7.65549e-41 -2.32157e-41 0)
(-1.64639e-41 6.36648e-41 0)
(2.88747e-42 7.63122e-41 0)
(5.46944e-42 1.65508e-41 0)
(1.224e-42 3.5494e-42 0)
(2.57419e-43 5.41093e-43 0)
(-3.45336e-44 2.13483e-43 0)
(-4.91311e-43 9.84561e-43 0)
(-2.19001e-42 6.5765e-42 0)
(-9.79579e-42 2.95787e-41 0)
(-1.20088e-42 1.35947e-40 0)
(2.58892e-41 4.59672e-41 0)
(1.6111e-41 -2.05691e-40 0)
(-1.40832e-41 -1.66578e-40 0)
(-1.80668e-41 -1.96749e-41 0)
(-7.1696e-42 7.14225e-41 0)
(9.73044e-42 7.41678e-41 0)
(1.01133e-41 -5.70935e-41 0)
(-9.16155e-42 -5.87992e-41 0)
(-1.04076e-41 6.4112e-41 0)
(2.84848e-42 7.85259e-41 0)
(6.44497e-42 2.58737e-41 0)
(2.19502e-42 -5.84966e-42 0)
(1.43791e-44 -2.27586e-42 0)
(1.74322e-42 -6.41728e-42 0)
(8.26168e-42 -2.57663e-41 0)
(-5.91027e-42 -1.18348e-40 0)
(-2.48064e-41 4.00545e-41 0)
(-4.118e-42 2.09124e-40 0)
(1.519e-41 1.05805e-40 0)
(-5.98344e-42 1.00486e-41 0)
(-5.82149e-43 1.85999e-40 0)
(2.13367e-41 1.88606e-41 0)
(-1.26101e-41 -9.60513e-41 0)
(-1.04592e-33 4.41023e-37 0)
(-1.05364e-34 -1.3629e-37 0)
(-1.03148e-35 -1.85668e-38 0)
(-9.31924e-37 -1.84844e-39 0)
(-8.16736e-38 -1.66646e-40 0)
(-6.73846e-39 -2.41519e-41 0)
(-5.39947e-40 -6.73097e-42 0)
(-4.18729e-41 4.18058e-42 0)
(-2.8072e-42 5.44889e-42 0)
(1.694e-43 1.19839e-42 0)
(7.16794e-44 2.5927e-43 0)
(1.72965e-44 3.98689e-44 0)
(-2.52948e-45 1.58153e-44 0)
(-3.48749e-44 7.25106e-44 0)
(-1.54429e-43 4.80315e-43 0)
(-6.8484e-43 2.14311e-42 0)
(-8.15821e-44 9.74257e-42 0)
(1.81237e-42 3.27657e-42 0)
(1.12798e-42 -1.47476e-41 0)
(-9.85035e-43 -1.19629e-41 0)
(-1.26614e-42 -1.42646e-42 0)
(-5.04257e-43 5.12681e-42 0)
(6.80109e-43 5.3584e-42 0)
(7.08246e-43 -4.07255e-42 0)
(-6.40501e-43 -4.20273e-42 0)
(-7.28712e-43 4.59619e-42 0)
(1.97436e-43 5.64409e-42 0)
(4.52474e-43 1.90374e-42 0)
(1.55729e-43 -4.49568e-43 0)
(2.40365e-46 -1.71404e-43 0)
(1.18993e-43 -4.63332e-43 0)
(5.61639e-43 -1.82008e-42 0)
(-4.83664e-43 -8.27697e-42 0)
(-1.73621e-42 3.7623e-42 0)
(-2.22262e-43 1.51905e-41 0)
(1.07409e-42 7.67494e-42 0)
(-4.1297e-43 8.27567e-43 0)
(-3.71223e-44 1.3337e-41 0)
(1.49313e-42 1.37604e-42 0)
(-8.81969e-43 -6.88679e-42 0)
(-8.00739e-35 -2.96306e-35 0)
(-8.35576e-36 -1.04848e-35 0)
(-8.35666e-37 -1.19566e-36 0)
(-7.72058e-38 -1.12443e-37 0)
(-6.87241e-39 -9.47579e-39 0)
(-5.75981e-40 -7.63038e-40 0)
(-4.66845e-41 -5.85454e-41 0)
(-3.648e-42 -3.99787e-42 0)
(-2.52977e-43 7.75171e-44 0)
(6.52478e-45 6.36873e-44 0)
(4.49993e-45 1.7032e-44 0)
(1.14935e-45 2.76169e-45 0)
(-1.73816e-46 1.1303e-45 0)
(-2.36241e-45 5.18339e-45 0)
(-1.04054e-44 3.41154e-44 0)
(-4.57433e-44 1.51242e-43 0)
(-5.29235e-45 6.81877e-43 0)
(1.21178e-43 2.28382e-43 0)
(7.54313e-44 -1.03256e-42 0)
(-6.581e-44 -8.3863e-43 0)
(-8.47751e-44 -1.00769e-43 0)
(-3.39572e-44 3.59071e-43 0)
(4.54196e-44 3.76271e-43 0)
(4.74803e-44 -2.84196e-43 0)
(-4.27465e-44 -2.93592e-43 0)
(-4.87387e-44 3.21744e-43 0)
(1.29992e-44 3.95773e-43 0)
(3.0443e-44 1.35e-43 0)
(1.06474e-44 -3.21828e-44 0)
(-1.12975e-46 -1.22743e-44 0)
(7.74928e-45 -3.24228e-44 0)
(3.64708e-44 -1.24851e-43 0)
(-3.67688e-44 -5.63785e-43 0)
(-1.16061e-43 3.32107e-43 0)
(-1.06883e-44 1.07864e-42 0)
(7.24169e-44 5.43069e-43 0)
(-2.72096e-44 6.27703e-44 0)
(-2.12433e-45 9.33793e-43 0)
(9.98717e-44 9.78094e-44 0)
(-5.90541e-44 -4.81432e-43 0)
(5.11974e-34 5.7579e-36 0)
(5.14578e-35 -8.55413e-37 0)
(5.02802e-36 -1.27783e-37 0)
(4.53533e-37 -1.29073e-38 0)
(3.96944e-38 -1.12215e-39 0)
(3.27104e-39 -9.17889e-41 0)
(2.61295e-40 -7.11199e-42 0)
(1.98839e-41 -5.08393e-43 0)
(1.46908e-42 -1.22147e-44 0)
(1.05747e-43 3.09095e-45 0)
(7.5473e-45 1.07406e-45 0)
(5.57848e-46 1.83158e-46 0)
(1.96709e-47 7.70527e-47 0)
(-1.53677e-46 3.53461e-46 0)
(-6.8249e-46 2.31235e-45 0)
(-2.98002e-45 1.01977e-44 0)
(-3.36656e-46 4.55908e-44 0)
(7.90042e-45 1.52051e-44 0)
(4.91858e-45 -6.90607e-44 0)
(-4.28786e-45 -5.61632e-44 0)
(-5.5328e-45 -6.79526e-45 0)
(-2.22357e-45 2.40451e-44 0)
(2.95858e-45 2.53326e-44 0)
(3.09947e-45 -1.89269e-44 0)
(-2.78314e-45 -1.95881e-44 0)
(-3.1781e-45 2.15185e-44 0)
(8.39426e-46 2.6526e-44 0)
(1.99192e-45 9.21896e-45 0)
(7.03535e-46 -2.27543e-45 0)
(-1.23711e-47 -8.53345e-46 0)
(4.90608e-46 -2.16934e-45 0)
(2.30428e-45 -8.1868e-45 0)
(-2.70456e-45 -3.66835e-44 0)
(-7.56531e-45 2.65654e-44 0)
(-4.02164e-46 7.31269e-44 0)
(4.773e-45 3.67156e-44 0)
(-1.74886e-45 4.61783e-45 0)
(-1.22578e-46 6.2463e-44 0)
(6.51112e-45 6.6239e-45 0)
(-3.85151e-45 -3.22151e-44 0)
(8.78379e-35 5.20421e-35 0)
(9.10457e-36 4.90856e-36 0)
(9.06158e-37 4.36432e-37 0)
(8.33539e-38 3.79735e-38 0)
(7.39497e-39 3.12179e-39 0)
(6.17889e-40 2.49086e-40 0)
(4.98792e-41 1.89435e-41 0)
(3.83598e-42 1.39913e-42 0)
(2.85642e-43 1.00717e-43 0)
(2.05171e-44 7.19136e-45 0)
(1.43917e-45 5.35334e-46 0)
(9.98639e-47 4.2168e-47 0)
(5.45042e-48 7.00155e-48 0)
(-9.47134e-48 2.35262e-47 0)
(-4.30804e-47 1.52422e-46 0)
(-1.86875e-46 6.69373e-46 0)
(-2.05995e-47 2.97258e-45 0)
(4.95774e-46 9.88011e-46 0)
(3.08704e-46 -4.50405e-45 0)
(-2.68916e-46 -3.66672e-45 0)
(-3.47625e-46 -4.46185e-46 0)
(-1.40384e-46 1.56925e-45 0)
(1.8551e-46 1.65804e-45 0)
(1.95e-46 -1.23062e-45 0)
(-1.74371e-46 -1.2751e-45 0)
(-1.99497e-46 1.40327e-45 0)
(5.1973e-47 1.73253e-45 0)
(1.25702e-46 6.08818e-46 0)
(4.49841e-47 -1.52461e-46 0)
(-1.29856e-48 -5.68905e-47 0)
(2.98472e-47 -1.40806e-46 0)
(1.40039e-46 -5.2129e-46 0)
(-1.88425e-46 -2.322e-45 0)
(-4.74661e-46 2.03596e-45 0)
(-7.36863e-48 4.83751e-45 0)
(3.02461e-46 2.41874e-45 0)
(-1.0816e-46 3.20941e-46 0)
(-6.38476e-48 4.07397e-45 0)
(4.0879e-46 4.36726e-46 0)
(-2.4212e-46 -2.09992e-45 0)
(6.34946e-37 1.67026e-35 0)
(7.76842e-38 1.62031e-36 0)
(8.75975e-39 1.4724e-37 0)
(8.85872e-40 1.29734e-38 0)
(8.45744e-41 1.07958e-39 0)
(7.50057e-42 8.68882e-41 0)
(6.34792e-43 6.66738e-42 0)
(5.07955e-44 4.95508e-43 0)
(3.91006e-45 3.54619e-44 0)
(2.9349e-46 2.47163e-45 0)
(2.18428e-47 1.68873e-46 0)
(1.70819e-48 1.14547e-47 0)
(4.80127e-50 9.99677e-49 0)
(-6.02191e-49 1.53213e-48 0)
(-2.65099e-48 9.66441e-48 0)
(-1.14289e-47 4.22903e-47 0)
(-1.23374e-48 1.86552e-46 0)
(3.03374e-47 6.17917e-47 0)
(1.88927e-47 -2.82728e-46 0)
(-1.64472e-47 -2.30414e-46 0)
(-2.12927e-47 -2.8182e-47 0)
(-8.62702e-48 9.86307e-47 0)
(1.13443e-47 1.04695e-46 0)
(1.19515e-47 -7.69661e-47 0)
(-1.06567e-47 -7.98807e-47 0)
(-1.22103e-47 8.80882e-47 0)
(3.14992e-48 1.08955e-46 0)
(7.72138e-48 3.88889e-47 0)
(2.78841e-48 -1.00257e-47 0)
(-1.02933e-49 -3.68657e-48 0)
(1.76565e-48 -8.79965e-48 0)
(8.2806e-48 -3.19456e-47 0)
(-1.27276e-47 -1.41387e-46 0)
(-2.90409e-47 1.46276e-46 0)
(7.05254e-49 3.07909e-46 0)
(1.87211e-47 1.53381e-46 0)
(-6.52427e-48 2.16346e-47 0)
(-3.29342e-49 2.55771e-46 0)
(2.502e-47 2.76652e-47 0)
(-1.48308e-47 -1.31927e-46 0)
(-7.60219e-35 4.57256e-35 0)
(-7.78351e-36 4.25918e-36 0)
(-7.65767e-37 3.75064e-37 0)
(-6.98471e-38 3.2425e-38 0)
(-6.15078e-39 2.65031e-39 0)
(-5.10993e-40 2.10539e-40 0)
(-4.10484e-41 1.59457e-41 0)
(-3.14472e-42 1.17247e-42 0)
(-2.33338e-43 8.28099e-44 0)
(-1.66334e-44 5.68382e-45 0)
(-1.15049e-45 3.76901e-46 0)
(-7.68449e-47 2.43342e-47 0)
(-4.99436e-48 1.53869e-48 0)
(-3.50563e-49 1.8483e-49 0)
(-1.77058e-49 6.01603e-49 0)
(-6.77459e-49 2.60274e-48 0)
(-7.15406e-50 1.14165e-47 0)
(1.79613e-48 3.77063e-48 0)
(1.11871e-48 -1.73054e-47 0)
(-9.73305e-49 -1.41161e-47 0)
(-1.26202e-48 -1.73401e-48 0)
(-5.13508e-49 6.04263e-48 0)
(6.71246e-49 6.43336e-48 0)
(7.09326e-49 -4.69768e-48 0)
(-6.30048e-49 -4.88157e-48 0)
(-7.23148e-49 5.39164e-48 0)
(1.84231e-49 6.67848e-48 0)
(4.59491e-49 2.40923e-48 0)
(1.67786e-49 -6.3152e-49 0)
(-7.98643e-51 -2.30444e-49 0)
(1.00859e-49 -5.34257e-49 0)
(4.73202e-49 -1.90248e-48 0)
(-8.23313e-49 -8.37582e-48 0)
(-1.71914e-48 1.01396e-47 0)
(1.08979e-49 1.91187e-47 0)
(1.1204e-48 9.47948e-48 0)
(-3.80674e-49 1.39584e-48 0)
(-1.51428e-50 1.56569e-47 0)
(1.48215e-48 1.70689e-48 0)
(-8.7979e-49 -8.07655e-48 0)
(-4.49733e-34 -6.60872e-35 0)
(-4.46853e-35 -7.85376e-36 0)
(-4.3317e-36 -7.59424e-37 0)
(-3.87627e-37 -6.82439e-38 0)
(-3.37245e-38 -5.69018e-39 0)
(-2.76287e-39 -4.57159e-40 0)
(-2.19687e-40 -3.49407e-41 0)
(-1.66456e-41 -2.58711e-42 0)
(-1.22425e-42 -1.83919e-43 0)
(-8.64775e-44 -1.26915e-44 0)
(-5.9355e-45 -8.45565e-46 0)
(-3.9341e-46 -5.47767e-47 0)
(-2.53723e-47 -3.43893e-48 0)
(-1.5886e-48 -2.04889e-49 0)
(-1.05822e-49 2.30488e-50 0)
(-4.47818e-50 1.54208e-49 0)
(-4.38248e-51 6.75935e-49 0)
(1.03744e-49 2.2262e-49 0)
(6.46349e-50 -1.02482e-48 0)
(-5.62046e-50 -8.36709e-49 0)
(-7.2974e-50 -1.03178e-49 0)
(-2.97882e-50 3.58318e-49 0)
(3.87587e-50 3.83059e-49 0)
(4.10513e-50 -2.77301e-49 0)
(-3.63552e-50 -2.88607e-49 0)
(-4.17871e-50 3.19309e-49 0)
(1.05415e-50 3.96156e-49 0)
(2.66486e-50 1.44845e-49 0)
(9.81308e-51 -3.89341e-50 0)
(-5.51649e-52 -1.40212e-50 0)
(5.60561e-51 -3.13822e-50 0)
(2.63244e-50 -1.0955e-49 0)
(-5.17343e-50 -4.79575e-49 0)
(-9.93014e-50 6.69619e-49 0)
(1.03438e-50 1.14831e-48 0)
(6.55001e-50 5.66855e-49 0)
(-2.1674e-50 8.74678e-50 0)
(-6.66108e-52 9.27356e-49 0)
(8.56562e-50 1.01764e-49 0)
(-5.08999e-50 -4.78825e-49 0)
(8.26929e-34 -1.09746e-34 0)
(8.39547e-35 -1.7416e-35 0)
(8.2579e-36 -1.7868e-36 0)
(7.49887e-37 -1.62941e-37 0)
(6.59539e-38 -1.35913e-38 0)
(5.4613e-39 -1.08925e-39 0)
(4.37909e-40 -8.29386e-41 0)
(3.34515e-41 -6.12063e-42 0)
(2.47678e-42 -4.33651e-43 0)
(1.7608e-43 -2.98384e-44 0)
(1.21513e-44 -1.9824e-45 0)
(8.09604e-46 -1.2811e-46 0)
(5.24496e-47 -8.02602e-48 0)
(3.29362e-48 -4.89544e-49 0)
(2.00939e-49 -2.70059e-50 0)
(9.78997e-51 7.30961e-51 0)
(4.71959e-52 3.89595e-50 0)
(5.86078e-51 1.28252e-50 0)
(3.62899e-51 -5.92168e-50 0)
(-3.152e-51 -4.83849e-50 0)
(-4.09823e-51 -5.98617e-51 0)
(-1.67936e-51 2.0727e-50 0)
(2.17356e-51 2.22249e-50 0)
(2.3086e-51 -1.59807e-50 0)
(-2.03711e-51 -1.66534e-50 0)
(-2.34523e-51 1.84508e-50 0)
(5.84762e-52 2.29222e-50 0)
(1.50222e-51 8.46652e-51 0)
(5.58522e-52 -2.3155e-51 0)
(-3.71186e-53 -8.26493e-52 0)
(3.01856e-52 -1.79365e-51 0)
(1.41991e-51 -6.13679e-51 0)
(-3.13499e-51 -2.67309e-50 0)
(-5.57059e-51 4.28352e-50 0)
(8.05744e-52 6.73155e-50 0)
(3.71739e-51 3.30626e-50 0)
(-1.19815e-51 5.28625e-51 0)
(-2.41314e-53 5.35913e-50 0)
(4.80867e-51 5.91473e-51 0)
(-2.86179e-51 -2.76867e-50 0)