/*--------------------------------*- C++ -*----------------------------------*\
| =========                 |                                                 |
| \\      /  F ield         | OpenFOAM: The Open Source CFD Toolbox           |
|  \\    /   O peration     | Version:  2.4.0                                 |
|   \\  /    A nd           | Web:      www.OpenFOAM.org                      |
|    \\/     M anipulation  |                                                 |
\*---------------------------------------------------------------------------*/
FoamFile
{
    version     2.0;
    format      ascii;
    class       surfaceScalarField;
    location    "0.15";
    object      phi;
}
// * * * * * * * * * * * * * * * * * * * * * * * * * * * * * * * * * * * * * //

dimensions      [0 3 -1 0 0 0 0];

internalField   nonuniform List<scalar> 
3731
(
2.07354e-49
-1.71008e-46
-7.05422e-48
4.53085e-48
-3.16558e-45
-1.30139e-46
9.83866e-47
-6.38057e-44
-2.54854e-45
1.79934e-45
-1.01089e-42
-4.04356e-44
3.62772e-44
-1.90048e-41
-7.31223e-43
5.63043e-43
-2.43789e-40
-9.48324e-42
1.06357e-41
-4.37081e-39
-1.60588e-40
1.31065e-40
-4.0571e-38
-1.53946e-39
2.37443e-39
-7.43545e-37
-2.55811e-38
1.931e-38
-3.65933e-36
-1.37919e-37
-2.01491e-40
-1.05063e-42
-1.50829e-39
-1.15434e-41
-2.02047e-39
-3.33398e-40
-1.90671e-37
-3.12289e-40
-6.33758e-49
6.58307e-40
1.90671e-37
6.58307e-40
2.02047e-39
-3.12289e-40
1.5083e-39
-3.33397e-40
2.0121e-40
-1.15443e-41
6.87202e-42
-1.03929e-42
5.54812e-43
-3.5025e-44
1.78719e-44
-2.17103e-45
-1.7872e-44
-1.42002e-46
-5.54814e-43
-2.17104e-45
-6.87205e-42
-3.50251e-44
-2.01211e-40
-1.03929e-42
-1.50832e-39
-1.15444e-41
-2.02103e-39
-3.334e-40
-1.90678e-37
-3.12324e-40
-2.01766e-40
6.57266e-40
1.89156e-37
6.46728e-40
-2.01766e-40
-6.46728e-40
-1.90678e-37
-6.57266e-40
-2.02103e-39
3.12324e-40
-1.50832e-39
3.334e-40
-2.01211e-40
1.15444e-41
-6.87318e-42
1.03929e-42
-5.73886e-43
3.49539e-44
-5.7494e-43
-3.35691e-48
-6.89105e-42
-3.50215e-44
-2.01747e-40
-1.04138e-42
-1.51463e-39
-1.15772e-41
-2.21534e-39
-3.34404e-40
-1.91985e-37
-3.22827e-40
-7.07046e-40
3.35447e-40
7.07045e-40
6.68878e-40
1.91985e-37
3.35447e-40
2.21482e-39
-3.22829e-40
1.51129e-39
-3.34424e-40
-1.23287e-41
-1.21876e-41
1.03497e-42
-1.00581e-40
1.25253e-41
-2.42321e-39
3.59002e-40
-4.59122e-39
3.36038e-40
-2.99843e-50
-7.08703e-40
4.59122e-39
-7.08703e-40
2.42321e-39
3.36038e-40
1.00582e-40
3.59002e-40
1.2176e-41
1.2527e-41
4.76762e-43
1.09676e-42
3.68832e-44
3.68491e-44
1.29154e-45
2.2478e-45
-1.29154e-45
1.46477e-46
-3.68833e-44
2.2478e-45
-4.76765e-43
3.68492e-44
-1.21761e-41
1.09676e-42
-1.00583e-40
1.25271e-41
-2.42325e-39
3.59005e-40
-4.59169e-39
3.36075e-40
-1.2213e-41
-7.07604e-40
4.49016e-39
-6.96139e-40
-1.2213e-41
6.96139e-40
-4.59169e-39
7.07604e-40
-2.42325e-39
-3.36075e-40
-1.00583e-40
-3.59005e-40
-1.21761e-41
-1.25271e-41
-4.76845e-43
-1.09676e-42
-3.82599e-44
-3.67758e-44
-3.83341e-44
3.43108e-48
-4.78136e-43
3.68456e-44
-1.22116e-41
1.09893e-42
-1.01023e-40
1.25617e-41
-2.43495e-39
3.60064e-40
-4.68006e-39
3.47503e-40
-2.33437e-39
-3.61166e-40
2.33437e-39
-7.20203e-40
4.68006e-39
-3.61165e-40
2.43491e-39
3.47504e-40
1.00712e-40
3.60048e-40
1.05112e-41
-1.39284e-42
7.35598e-44
-5.64611e-42
9.10845e-43
-8.0921e-41
2.21001e-41
-1.5019e-40
2.04269e-41
-1.38993e-50
-4.35195e-41
1.5019e-40
-4.35195e-41
8.0921e-41
2.04269e-41
5.64606e-42
2.21001e-41
1.388e-42
9.10977e-43
5.94818e-44
7.84399e-44
5.48539e-45
2.87426e-45
1.96735e-46
1.72985e-46
-1.96735e-46
1.19356e-47
-5.48542e-45
1.72986e-46
-5.94823e-44
2.87427e-45
-1.38801e-42
7.84402e-44
-5.64627e-42
9.10983e-43
-8.09265e-41
2.21003e-41
-1.5025e-40
2.04298e-41
-1.3935e-42
-4.34409e-41
1.44484e-40
-4.26056e-41
-1.3935e-42
4.26056e-41
-1.5025e-40
4.34409e-41
-8.09265e-41
-2.04298e-41
-5.64627e-42
-2.21003e-41
-1.38801e-42
-9.10983e-43
-5.94953e-44
-7.84399e-44
-5.69606e-45
-2.86828e-45
-5.70818e-45
2.76792e-49
-5.9692e-44
2.87397e-45
-1.39329e-42
7.86066e-44
-5.70026e-42
9.13685e-43
-8.22548e-41
2.21759e-41
-1.54502e-40
2.12622e-41
-7.66087e-41
-2.22546e-41
7.66087e-41
-4.43575e-41
1.54502e-40
-2.22546e-41
8.22552e-41
2.12623e-41
5.70942e-42
2.21745e-41
7.63275e-43
-7.58381e-44
1.02038e-44
-2.27474e-43
1.09404e-43
-2.08166e-42
2.59522e-42
-3.76712e-42
2.39696e-42
-1.01467e-51
-5.11291e-42
3.76712e-42
-5.11291e-42
2.08166e-42
2.39696e-42
2.27469e-43
2.59522e-42
7.55166e-44
1.09431e-43
3.56049e-45
1.08741e-44
3.37681e-46
4.07371e-46
1.2804e-47
2.60381e-47
-1.28041e-47
1.81022e-48
-3.37683e-46
2.60381e-47
-3.56052e-45
4.07372e-46
-7.55175e-44
1.08741e-44
-2.27483e-43
1.09432e-43
-2.082e-42
2.59524e-42
-3.77069e-42
2.39736e-42
-7.58552e-44
-5.10201e-42
3.53607e-42
-5.00307e-42
-7.58552e-44
5.00307e-42
-3.77069e-42
5.10201e-42
-2.082e-42
-2.39736e-42
-2.27483e-43
-2.59524e-42
-7.55175e-44
-1.09432e-43
-3.56137e-45
-1.08741e-44
-3.51399e-46
-4.06464e-46
-3.5219e-46
4.29975e-50
-3.57417e-45
4.07326e-46
-7.58415e-44
1.08992e-44
-2.30704e-43
1.09813e-43
-2.15394e-42
2.60571e-42
-3.92231e-42
2.49589e-42
-1.92647e-42
-2.61663e-42
1.92647e-42
-5.21223e-42
3.92231e-42
-2.61663e-42
2.15405e-42
2.4959e-42
2.3189e-43
2.6054e-42
8.982e-44
-6.00724e-45
6.40756e-46
-1.28852e-44
6.73174e-45
-3.73165e-44
1.4752e-43
-5.85924e-44
1.35347e-43
-1.1727e-52
-2.90315e-43
5.85924e-44
-2.90315e-43
3.73164e-44
1.35347e-43
1.28844e-44
1.4752e-43
5.97322e-45
6.73361e-45
2.89567e-46
6.85204e-46
2.92509e-47
2.71053e-47
1.11909e-48
1.74155e-48
-1.11909e-48
1.25634e-49
-2.9251e-47
1.74156e-48
-2.8957e-46
2.71054e-47
-5.9733e-45
6.85207e-46
-1.28856e-44
6.73367e-45
-3.73457e-44
1.47522e-43
-5.88832e-44
1.35374e-43
-6.00255e-45
-2.89628e-43
4.54173e-44
-2.83555e-43
-6.00255e-45
2.83555e-43
-5.88832e-44
2.89628e-43
-3.73457e-44
-1.35374e-43
-1.28856e-44
-1.47522e-43
-5.9733e-45
-6.73367e-45
-2.89646e-46
-6.85204e-46
-3.04519e-47
-2.70424e-47
-3.05228e-47
2.98001e-51
-2.90765e-46
2.71022e-47
-6.00136e-45
6.86879e-46
-1.31458e-44
6.75903e-45
-4.30282e-44
1.4818e-43
-6.5765e-44
1.41421e-43
-3.01438e-44
-1.48869e-43
3.01438e-44
-2.96415e-43
6.57658e-44
-1.48869e-43
4.30488e-44
1.41421e-43
1.33295e-44
1.48157e-43
5.49668e-45
-3.17063e-46
5.42552e-47
-6.0535e-46
5.35826e-46
-3.01687e-46
1.16209e-44
2.32765e-47
1.06579e-44
-7.41168e-54
-2.28751e-44
-2.32766e-47
-2.28751e-44
3.01682e-46
1.06579e-44
6.05297e-46
1.16209e-44
3.15059e-46
5.36031e-46
1.60838e-47
5.78047e-47
1.64727e-48
2.30931e-48
6.52224e-50
1.51816e-49
-6.52227e-50
1.09907e-50
-1.64728e-48
1.51816e-49
-1.60839e-47
2.30932e-48
-3.15064e-46
5.7805e-47
-6.05367e-46
5.36036e-46
-3.03334e-46
1.1621e-44
7.12297e-48
1.06603e-44
-3.16711e-46
-2.28172e-44
-6.44727e-46
-2.23368e-44
-3.16711e-46
2.23368e-44
7.12297e-48
2.28172e-44
-3.03334e-46
-1.06603e-44
-6.05367e-46
-1.1621e-44
-3.15064e-46
-5.36036e-46
-1.60884e-47
-5.78047e-47
-1.71728e-48
-2.30381e-48
-1.72142e-48
2.62478e-52
-1.61536e-47
2.30904e-48
-3.16642e-46
5.79508e-47
-6.19799e-46
5.38194e-46
-6.0224e-46
1.16765e-44
-2.81463e-46
1.11383e-44
3.05712e-48
-1.17346e-44
-3.05497e-48
-2.33577e-44
2.81516e-46
-1.17346e-44
6.03626e-46
1.11383e-44
6.31614e-46
1.16743e-44
4.3266e-46
-2.03079e-47
1.20303e-47
-3.67402e-47
2.94615e-47
2.50297e-47
6.22067e-46
8.40959e-47
5.68138e-46
1.37648e-54
-1.22374e-45
-8.40959e-47
-1.22374e-45
-2.50295e-47
5.68139e-46
3.67281e-47
6.221e-46
2.01815e-47
3.0073e-47
1.04043e-48
3.28364e-48
1.08954e-49
1.35713e-49
4.33375e-51
8.93827e-51
-4.33376e-51
6.62428e-52
-1.08954e-49
8.93829e-51
-1.04044e-48
1.35713e-49
-2.01818e-47
3.28366e-48
-3.67327e-47
3.00733e-47
2.49203e-47
6.22108e-46
8.30508e-47
5.68275e-46
-2.02908e-47
-1.22045e-45
-1.21869e-46
-1.19353e-45
-2.02908e-47
1.19353e-45
8.30508e-47
1.22045e-45
2.49203e-47
-5.68275e-46
-3.67327e-47
-6.22108e-46
-2.01818e-47
-3.00733e-47
-1.04074e-48
-3.28364e-48
-1.13609e-49
-1.35381e-49
-1.13885e-49
1.57764e-53
-1.04507e-48
1.35697e-49
-2.02861e-47
3.29223e-48
-3.76639e-47
3.02001e-47
5.78383e-48
6.25256e-46
6.66134e-47
5.95056e-46
4.25119e-47
-6.28557e-46
-4.25117e-47
-1.25078e-45
-6.66092e-47
-6.28557e-46
-5.67337e-48
5.95051e-46
3.85695e-47
6.25113e-46
2.42143e-47
-2.52879e-49
4.28941e-47
-1.84034e-48
-7.89448e-48
1.79722e-48
3.88511e-47
5.16857e-48
3.59646e-47
3.68382e-53
-7.75545e-47
-5.1679e-48
-7.75536e-47
-1.7848e-48
3.59875e-47
1.78982e-48
3.94228e-47
1.00136e-48
1.91941e-48
5.32521e-50
2.1428e-49
5.59583e-51
8.90538e-51
2.27543e-52
5.90423e-52
-2.27544e-52
4.38386e-53
-5.59586e-51
5.90424e-52
-5.32527e-50
8.90542e-51
-1.00137e-48
2.14281e-49
-1.79007e-48
1.91943e-48
1.77918e-48
3.94234e-47
5.11441e-48
3.59965e-47
-1.00697e-48
-7.73387e-47
-7.01123e-48
-7.56253e-47
-1.00697e-48
7.56253e-47
5.11441e-48
7.73387e-47
1.77918e-48
-3.59965e-47
-1.79007e-48
-3.94234e-47
-1.00137e-48
-1.91943e-48
-5.32684e-50
-2.1428e-49
-5.8402e-51
-8.88343e-51
-5.85467e-51
1.04277e-54
-5.34958e-50
8.9043e-51
-1.00673e-48
2.14848e-49
-1.83771e-48
1.92775e-48
8.31324e-49
3.96288e-47
4.33155e-48
3.7701e-47
2.62115e-48
-3.98442e-47
-2.62114e-48
-7.92754e-47
-4.33131e-48
-3.98442e-47
-8.25193e-49
3.77006e-47
1.88744e-48
3.96186e-47
1.53848e-48
5.17791e-47
4.13679e-45
-1.60269e-48
-2.58616e-46
4.71941e-49
-1.34631e-47
3.17418e-49
1.29432e-48
8.79585e-52
-3.88013e-48
-2.99694e-49
-3.86289e-48
-1.07019e-49
1.78788e-48
9.71386e-50
1.96435e-48
5.46434e-50
9.86058e-50
2.92242e-51
1.10379e-50
3.08965e-52
4.68944e-52
1.26026e-53
3.10101e-53
-1.26026e-53
2.33706e-54
-3.08967e-52
3.10102e-53
-2.92245e-51
4.68946e-52
-5.46442e-50
1.1038e-50
-9.71521e-50
9.86069e-50
1.0671e-49
1.96438e-48
2.96792e-49
1.78836e-48
-5.49532e-50
-3.85131e-48
-3.99802e-49
-3.76331e-48
-5.49532e-50
3.76331e-48
2.96792e-49
3.85131e-48
1.0671e-49
-1.78836e-48
-9.71521e-50
-1.96438e-48
-5.46442e-50
-9.86069e-50
-2.92332e-51
-1.10379e-50
-3.22499e-52
-4.67774e-52
-3.23299e-52
5.53007e-56
-2.93592e-51
4.68887e-52
-5.49397e-50
1.10677e-50
-9.97647e-50
9.90449e-50
5.50024e-50
1.97495e-48
2.54606e-49
1.8759e-48
1.52141e-49
-1.98604e-48
-1.5214e-49
-3.95083e-48
-2.54592e-49
-1.98605e-48
-5.46352e-50
1.87588e-48
1.02727e-49
1.97439e-48
7.90394e-50
3.05509e-45
-9.5041e-45
1.4997e-46
-5.04598e-46
7.47175e-48
-2.35812e-47
3.28768e-49
-6.24746e-49
1.16074e-50
-2.69687e-49
-1.35124e-50
-2.43494e-49
-5.00807e-51
1.12282e-49
4.44312e-51
1.23447e-49
2.50907e-51
6.22979e-51
1.36995e-52
7.01465e-52
1.44499e-53
2.9903e-53
5.98223e-55
1.97416e-54
-5.98225e-55
1.48879e-55
-1.445e-53
1.97416e-54
-1.36996e-52
2.99031e-53
-2.50909e-51
7.01469e-52
-4.44332e-51
6.22988e-51
5.00707e-51
1.2345e-49
1.37997e-50
1.12337e-49
-2.52355e-51
-2.42014e-49
-1.85177e-50
-2.36458e-49
-2.52355e-51
2.36458e-49
1.37997e-50
2.42014e-49
5.00707e-51
-1.12337e-49
-4.44332e-51
-1.2345e-49
-2.5091e-51
-6.22988e-51
-1.37037e-52
-7.01465e-52
-1.50921e-53
-2.98284e-53
-1.51298e-53
3.50305e-57
-1.37635e-52
2.98993e-53
-2.52291e-51
7.03361e-52
-4.56582e-51
6.25781e-51
2.63565e-51
1.24121e-49
1.18806e-50
1.17863e-49
7.07833e-51
-1.24826e-49
-7.07829e-51
-2.48302e-49
-1.18799e-50
-1.24826e-49
-2.61772e-51
1.17861e-49
4.71092e-51
1.24084e-49
4.98917e-51
6.51123e-37
-1.93972e-36
-4.36878e-36
6.5776e-37
2.20581e-38
-6.22095e-34
-3.7344e-36
-3.74658e-38
9.05843e-36
6.94363e-34
5.25125e-36
-1.24984e-36
1.73066e-37
2.87767e-36
4.90502e-36
1.1547e-37
7.27558e-37
5.64928e-36
2.18608e-37
7.35862e-37
-1.74612e-38
9.62324e-36
3.71327e-37
-1.78134e-38
-1.17016e-36
1.97317e-35
7.9855e-36
-1.18543e-36
-2.30995e-36
1.07073e-33
2.29743e-35
-2.33935e-36
-7.42971e-38
1.14146e-33
2.3456e-35
-7.52343e-38
2.30777e-36
8.48161e-36
2.33712e-36
3.63295e-37
1.26251e-36
4.43595e-38
4.27565e-38
1.68449e-39
3.50935e-39
1.46058e-40
1.1225e-40
3.19435e-40
5.79894e-42
9.89318e-39
-2.32651e-41
1.24533e-37
-3.94144e-40
3.91389e-36
-1.2694e-38
2.94118e-35
-1.47251e-37
4.26254e-35
-4.59609e-36
3.97326e-33
-4.46116e-36
4.26254e-35
4.46116e-36
2.94117e-35
4.59609e-36
3.91288e-36
1.47183e-37
9.32164e-38
6.55037e-39
-2.05043e-38
-4.11441e-37
3.07121e-38
-3.62344e-35
3.13348e-38
-4.11834e-37
1.0039e-39
-6.14363e-39
8.65269e-41
-6.79078e-41
2.73109e-42
8.38569e-44
1.1837e-42
2.45643e-42
2.22662e-41
2.76273e-38
-9.24794e-38
2.63882e-39
-1.76578e-39
1.06333e-40
-5.15431e-41
-1.53752e-42
7.36461e-42
-1.13664e-39
-7.86056e-38
3.8458e-41
-1.45063e-39
4.70248e-42
-3.98702e-41
-1.15568e-42
7.70104e-43
4.36711e-38
1.08136e-37
8.78122e-39
1.92761e-39
3.85501e-40
4.41829e-41
1.1258e-42
3.9078e-41
5.46774e-39
1.02486e-37
6.61878e-40
1.86141e-39
3.0213e-41
4.57753e-41
1.23269e-42
2.5242e-42
3.17017e-38
9.63938e-39
3.00512e-39
3.09482e-40
1.22498e-40
1.75871e-41
6.56861e-43
8.45647e-42
-8.95314e-40
1.77105e-38
-8.8534e-41
5.8506e-40
-3.91098e-42
3.37745e-41
1.25493e-42
-2.7163e-43
-5.15108e-38
1.63996e-37
-4.84827e-39
2.88779e-39
-1.98156e-40
4.80792e-41
8.19998e-43
-1.3569e-41
-1.00889e-37
4.47417e-37
-9.49314e-39
7.25465e-39
-3.86323e-40
6.79772e-41
-3.20244e-43
-2.64553e-41
-3.23612e-39
4.56493e-37
-3.0449e-40
7.39393e-39
-1.23725e-41
6.85794e-41
-3.57982e-43
-8.47305e-43
1.00777e-37
1.73339e-37
9.48265e-39
3.02988e-39
3.85863e-40
4.85205e-41
7.72933e-43
2.6424e-41
5.48403e-38
1.60314e-38
5.16307e-39
5.11588e-40
2.10992e-40
2.8501e-41
1.04934e-42
1.44502e-41
2.1516e-39
3.83776e-39
2.07895e-40
1.51287e-40
9.17975e-42
1.0049e-41
3.86301e-43
6.34214e-43
1.77783e-40
1.58832e-40
1.95394e-41
6.84212e-42
8.78748e-43
4.63802e-43
1.87516e-44
6.39322e-44
6.11733e-42
1.49088e-41
6.87249e-43
7.25516e-43
3.2409e-44
4.91851e-44
2.1663e-45
2.37519e-45
-3.571e-43
1.59139e-41
-4.01515e-46
1.82129e-42
-2.92854e-45
8.57624e-44
6.04245e-45
-1.05959e-46
-2.34799e-41
4.46765e-40
-1.32563e-42
5.1013e-41
-1.53152e-43
2.26055e-42
1.59731e-43
-7.64945e-45
-3.94562e-40
5.65393e-39
-2.23163e-41
5.50127e-40
-2.44209e-42
2.38387e-41
1.59026e-42
-1.2173e-43
-1.2651e-38
1.54708e-37
-6.59395e-40
1.39387e-38
-7.09676e-41
5.51944e-40
3.62027e-41
-3.35498e-42
-1.46664e-37
1.16401e-36
-7.57193e-39
4.82085e-38
-7.12608e-40
1.43876e-39
7.32755e-41
-3.30671e-41
-4.54535e-36
2.94701e-35
-2.01539e-37
6.34612e-37
-1.8668e-38
1.05353e-38
1.20813e-40
-8.01147e-40
-4.41096e-36
5.69112e-35
-1.94605e-37
1.19968e-36
-1.8024e-38
1.92536e-38
1.6461e-40
-7.71321e-40
4.41096e-36
2.94701e-35
1.94605e-37
6.34614e-37
1.8024e-38
1.05354e-38
1.20831e-40
7.71321e-40
4.54535e-36
1.1641e-36
2.01538e-37
4.82988e-38
1.86677e-38
1.44345e-39
7.37828e-41
8.01133e-40
1.46625e-37
1.55711e-37
7.5627e-39
1.49858e-38
7.08689e-40
6.05945e-40
4.12974e-41
3.28289e-41
9.3131e-39
3.69599e-38
2.60681e-40
3.30322e-38
-6.05039e-41
1.46164e-39
1.35104e-40
-3.92478e-42
-2.15162e-37
3.08337e-38
-1.15866e-38
3.15736e-38
-1.61688e-39
1.39061e-39
1.29071e-40
-8.17409e-41
-5.30177e-37
-3.03715e-38
-3.70949e-37
-3.15208e-38
-5.15816e-38
-1.38827e-39
-1.28882e-40
-2.28288e-39
-2.15556e-37
-3.13051e-38
-1.16089e-38
-3.2482e-38
-1.61929e-39
-1.43772e-39
-1.32824e-40
-8.18174e-41
-3.3379e-39
-1.00291e-39
-3.98679e-40
-1.04702e-39
-1.30942e-40
-5.271e-41
6.44835e-42
-6.3251e-42
-3.92717e-41
-8.63371e-41
-8.20593e-42
-8.85633e-41
1.38042e-41
3.27938e-41
3.39723e-40
3.30827e-41
1.52499e-42
-1.60113e-42
1.62767e-41
1.35515e-41
2.92579e-40
3.74461e-40
3.86707e-39
6.71531e-40
5.24052e-41
2.5982e-41
5.09589e-40
3.95975e-40
9.80115e-39
9.82427e-39
1.02749e-37
2.85406e-38
4.92374e-40
5.62752e-39
1.19349e-37
8.02863e-37
2.5026e-43
-8.76213e-44
1.19682e-44
-2.59461e-45
3.83588e-46
-1.24205e-46
1.54715e-47
-4.00562e-48
4.66148e-49
-1.72955e-49
1.56366e-50
-1.19775e-50
1.97535e-52
3.02013e-51
2.47427e-52
3.51952e-51
1.32019e-52
1.8127e-52
7.19766e-54
2.05579e-53
7.55926e-55
8.89698e-55
3.12517e-56
5.87955e-56
-3.12448e-56
4.48001e-57
-7.55662e-55
5.87986e-56
-7.18696e-54
8.89824e-55
-1.31638e-52
2.05623e-53
-2.33011e-52
1.81434e-52
2.6441e-52
3.5247e-51
7.27121e-52
3.2013e-51
-1.32394e-52
-6.90737e-51
-9.74538e-52
-6.74567e-51
-1.32394e-52
6.74567e-51
7.27121e-52
6.90737e-51
2.6441e-52
-3.2013e-51
-2.33011e-52
-3.5247e-51
-1.31638e-52
-1.81434e-52
-7.18908e-54
-2.05622e-53
-7.8918e-55
-8.87576e-55
-7.91137e-55
1.05151e-58
-7.22032e-54
8.89711e-55
-1.32361e-52
2.06186e-53
-2.3944e-52
1.82265e-52
1.39995e-52
3.54437e-51
6.26537e-52
3.36211e-51
3.72972e-52
-3.56505e-51
-3.7297e-52
-7.09053e-51
-6.26496e-52
-3.56505e-51
-1.3899e-52
3.36205e-51
2.47699e-52
3.54323e-51
1.451e-52
3.5067e-44
-7.20351e-44
2.43527e-45
-2.41363e-45
9.44526e-47
-1.19925e-46
4.82074e-48
-3.88564e-48
1.67856e-49
-1.61111e-49
6.98068e-51
-5.11044e-51
2.15957e-52
-7.0492e-53
1.4092e-53
1.0935e-52
3.69574e-54
5.73696e-54
1.99082e-55
6.57238e-55
2.03378e-56
2.84762e-56
8.46824e-58
1.86322e-57
-8.40962e-58
1.41602e-58
-2.01363e-56
1.86613e-57
-1.91683e-55
2.85935e-56
-3.46141e-54
6.61382e-55
-6.11492e-54
5.89294e-54
6.96124e-54
1.143e-52
1.91104e-53
1.03784e-52
-3.48155e-54
-2.23975e-52
-2.56096e-53
-2.18717e-52
-3.48155e-54
2.18717e-52
1.91104e-53
2.23975e-52
6.96124e-54
-1.03784e-52
-6.11492e-54
-1.143e-52
-3.46141e-54
-5.89294e-54
-1.91739e-55
-6.61379e-55
-2.10384e-56
-2.85225e-56
-2.10908e-56
3.28107e-60
-1.9258e-55
2.859e-56
-3.48065e-54
6.6317e-55
-6.28641e-54
5.91967e-54
3.69247e-54
1.14933e-52
1.64779e-53
1.09013e-52
9.80649e-54
-1.15598e-52
-9.80643e-54
-2.29924e-52
-1.64768e-53
-1.15598e-52
-3.66478e-54
1.09012e-52
6.51445e-54
1.14895e-52
4.72769e-54
1.44025e-42
6.63977e-44
8.8399e-44
2.2174e-45
3.07084e-45
1.11879e-46
1.48713e-46
3.64566e-48
4.83633e-48
1.52495e-49
1.9614e-49
4.64526e-51
5.95954e-51
1.69744e-52
2.09791e-52
7.81511e-54
6.04965e-54
3.10621e-55
1.91173e-55
2.18998e-56
5.50049e-57
8.95391e-58
1.62471e-58
5.3519e-59
-2.05906e-59
3.94412e-60
-5.76109e-58
5.06852e-59
-5.53984e-57
7.81518e-58
-1.00139e-55
1.78908e-56
-1.76884e-55
1.60059e-55
2.01423e-55
3.0575e-54
5.5287e-55
2.7717e-54
-1.00715e-55
-5.9892e-54
-7.40859e-55
-5.8463e-54
-1.00715e-55
5.8463e-54
5.5287e-55
5.9892e-54
2.01423e-55
-2.7717e-54
-1.76884e-55
-3.0575e-54
-1.00139e-55
-1.60059e-55
-5.54144e-57
-1.78907e-56
-6.01941e-58
-7.79577e-58
-6.0342e-58
8.8963e-62
-5.56546e-57
7.81423e-58
-1.0069e-55
1.79394e-56
-1.81846e-55
1.6079e-55
1.06851e-55
3.07461e-54
4.76727e-55
2.91381e-54
2.8371e-55
-3.0926e-54
-2.83708e-55
-6.15078e-54
-4.76694e-55
-3.0926e-54
-1.06037e-55
2.91376e-54
1.88678e-55
3.07354e-54
1.28607e-55
9.44615e-44
7.37215e-44
5.24235e-45
2.46604e-45
1.83825e-46
1.22854e-46
8.38305e-48
3.993e-48
2.7446e-49
1.65681e-49
1.0703e-50
5.04296e-51
3.26862e-52
1.8018e-52
1.11948e-53
5.21215e-54
3.21373e-55
1.66203e-55
9.90008e-57
4.80858e-57
2.74152e-58
1.44052e-58
7.80768e-60
4.45654e-60
-4.27907e-61
1.86672e-61
-1.44471e-59
1.42995e-60
-1.39981e-58
2.23122e-59
-2.50308e-57
5.11627e-58
-4.41416e-57
4.63076e-57
5.03507e-57
8.84082e-56
1.38043e-56
8.01281e-56
-2.51753e-57
-1.73166e-55
-1.8499e-56
-1.69025e-55
-2.51753e-57
1.69025e-55
1.38043e-56
1.73166e-55
5.03507e-57
-8.01281e-56
-4.41416e-57
-8.84082e-56
-2.50308e-57
-4.63076e-57
-1.40021e-58
-5.11624e-58
-1.51016e-59
-2.22577e-59
-1.51386e-59
2.46335e-63
-1.40628e-58
2.23095e-59
-2.51689e-57
5.12996e-58
-4.53964e-57
4.65165e-57
2.67265e-57
8.88974e-56
1.19083e-56
8.42457e-56
7.08616e-57
-8.94118e-56
-7.08612e-57
-1.7784e-55
-1.19074e-56
-8.94119e-56
-2.65189e-57
8.42441e-56
4.71584e-57
8.88664e-56
3.73355e-57
2.86203e-43
3.6285e-44
1.36317e-44
1.1554e-45
4.36254e-46
4.75194e-47
1.75481e-47
1.43932e-48
5.2811e-49
5.15281e-50
1.85077e-50
1.46905e-51
5.22532e-52
4.67175e-53
1.62903e-53
1.25353e-54
4.31187e-55
3.60118e-56
1.21363e-56
9.1576e-58
3.01349e-58
2.41918e-59
7.74335e-60
5.93966e-61
1.64062e-61
1.61658e-62
-3.70038e-61
3.60655e-62
-3.6691e-60
5.6431e-61
-6.56938e-59
1.2845e-59
-1.15836e-58
1.17299e-58
1.32137e-58
2.21267e-57
3.62236e-58
2.0027e-57
-6.60681e-59
-4.33263e-57
-4.85427e-58
-4.22765e-57
-6.60681e-59
4.22765e-57
3.62236e-58
4.33263e-57
1.32137e-58
-2.0027e-57
-1.15836e-58
-2.21267e-57
-6.56938e-59
-1.17299e-58
-3.67021e-60
-1.28449e-59
-3.91067e-61
-5.62934e-61
-3.9201e-61
6.1269e-65
-3.6859e-60
5.64238e-61
-6.60514e-59
1.28793e-59
-1.1913e-58
1.17828e-58
7.01302e-59
2.22495e-57
3.12484e-58
2.10712e-57
1.8595e-58
-2.23786e-57
-1.85949e-58
-4.45103e-57
-3.12461e-58
-2.23786e-57
-6.95834e-59
2.10708e-57
1.23863e-58
2.22415e-57
9.48333e-59
-9.62976e-45
6.81212e-44
-4.5381e-46
2.14038e-45
-1.49034e-47
8.62199e-47
-5.89671e-49
2.57196e-48
-1.79825e-50
9.0152e-50
-6.18174e-52
2.52775e-51
-1.75326e-53
7.86723e-53
-5.35378e-55
2.06972e-54
-1.41413e-56
5.80792e-56
-3.89436e-58
1.43317e-57
-9.58899e-60
3.66679e-59
-2.40666e-61
8.49059e-61
-5.91511e-63
2.00099e-62
-8.86928e-63
1.34248e-63
-8.6602e-62
1.45621e-62
-1.53803e-60
3.31908e-61
-2.7083e-60
3.07115e-60
3.09356e-60
5.79164e-59
8.47248e-60
5.24106e-59
-1.54677e-60
-1.13397e-58
-1.13544e-59
-1.10644e-58
-1.54677e-60
1.10644e-58
8.47248e-60
1.13397e-58
3.09356e-60
-5.24106e-59
-2.7083e-60
-5.79164e-59
-1.53803e-60
-3.07115e-60
-8.6623e-62
-3.31906e-61
-9.13491e-63
-1.45181e-62
-9.15677e-63
1.52996e-66
-8.69911e-62
1.45511e-62
-1.54638e-60
3.32779e-61
-2.78613e-60
3.08479e-60
1.64255e-60
5.82338e-59
7.31134e-60
5.51489e-59
4.35046e-60
-5.85674e-59
-4.35043e-60
-1.16497e-58
-7.31078e-60
-5.85675e-59
-1.62963e-60
5.51478e-59
2.89969e-60
5.82128e-59
2.49202e-60
-4.59123e-43
2.37015e-44
-2.16881e-44
6.28711e-46
-6.92853e-46
2.40653e-47
-2.76433e-47
7.09399e-49
-8.2951e-49
2.47901e-50
-2.88395e-50
6.92895e-52
-8.11161e-52
2.15399e-53
-2.50922e-53
5.65262e-55
-6.61108e-55
1.58434e-56
-1.84638e-56
3.90034e-58
-4.55732e-58
9.96557e-60
-1.16139e-59
2.30154e-61
-2.68673e-61
5.40547e-63
-6.50327e-63
1.38192e-64
-2.21126e-63
3.4415e-64
-3.68989e-62
7.75242e-63
-6.4961e-62
7.25959e-62
7.42056e-62
1.35611e-60
2.03209e-61
1.22578e-60
-3.71025e-62
-2.65447e-60
-2.72329e-61
-2.5893e-60
-3.71025e-62
2.5893e-60
2.03209e-61
2.65447e-60
7.42056e-62
-1.22578e-60
-6.49609e-62
-1.35611e-60
-3.68959e-62
-7.25959e-62
-2.07523e-63
-7.75233e-63
-2.15899e-64
-3.40803e-64
-2.16407e-64
3.51001e-68
-2.08391e-63
3.4157e-64
-3.70933e-62
7.77258e-63
-6.68284e-62
7.29164e-62
3.93942e-62
1.36352e-60
1.7536e-61
1.2906e-60
1.04346e-61
-1.37132e-60
-1.04345e-61
-2.72773e-60
-1.75347e-61
-1.37132e-60
-3.90852e-62
1.29058e-60
6.96005e-62
1.36302e-60
5.91083e-62
-8.92543e-43
-7.84313e-44
-4.2168e-44
-2.79617e-45
-1.34421e-45
-1.16084e-46
-5.3638e-47
-3.47788e-48
-1.6069e-48
-1.21866e-49
-5.5872e-50
-3.41443e-51
-1.56947e-51
-1.06114e-52
-4.85517e-53
-2.78868e-54
-1.27789e-54
-7.81356e-56
-3.56895e-56
-1.92555e-57
-8.80179e-58
-4.91837e-59
-2.24297e-59
-1.13671e-60
-5.18515e-61
-2.6685e-62
-1.2156e-62
-5.78078e-64
-3.0919e-64
-4.51597e-66
-8.14449e-64
1.82675e-64
-1.42244e-63
1.73834e-63
1.62648e-63
3.24646e-62
4.45055e-63
2.93386e-62
-8.13237e-64
-6.3541e-62
-5.96457e-63
-6.1978e-62
-8.13237e-64
6.1978e-62
4.45055e-63
6.3541e-62
1.62649e-63
-2.93386e-62
-1.42232e-63
-3.24646e-62
-8.08738e-64
-1.73835e-63
-4.57578e-65
-1.8293e-64
-4.70111e-66
-8.0246e-66
-4.71206e-66
7.93065e-70
-4.59474e-65
8.04233e-66
-8.13035e-64
1.834e-64
-1.46356e-63
1.7459e-63
8.63707e-64
3.26394e-62
3.84167e-63
3.08935e-62
2.28583e-63
-3.28233e-62
-2.28581e-63
-6.5295e-62
-3.84138e-63
-3.28234e-62
-8.56922e-64
3.08929e-62
1.52555e-63
3.26275e-62
1.42088e-63
-2.8557e-44
-8.17663e-44
-1.34925e-45
-2.90783e-45
-4.2978e-47
-1.20652e-46
-1.71502e-48
-3.61434e-48
-5.13488e-50
-1.26645e-49
-1.78545e-51
-3.54825e-51
-5.01307e-53
-1.10272e-52
-1.55081e-54
-2.8979e-54
-4.08021e-56
-8.11957e-56
-1.13953e-57
-2.00093e-57
-2.80947e-59
-5.11087e-59
-7.15925e-61
-1.18118e-60
-1.65461e-62
-2.77288e-62
-3.87843e-64
-6.01177e-64
-9.41372e-66
-1.28744e-65
-1.80462e-65
3.71668e-66
-3.14159e-65
3.83758e-65
3.59238e-65
7.11446e-64
9.82864e-65
6.42318e-64
-1.79618e-65
-1.39213e-63
-1.31721e-64
-1.35757e-63
-1.79618e-65
1.35757e-63
9.82864e-65
1.39214e-63
3.59239e-65
-6.42318e-64
-3.14122e-65
-7.11447e-64
-1.7864e-65
-3.83812e-65
-1.0094e-66
-3.98219e-66
-1.02177e-67
-1.74936e-67
-1.0241e-67
-2.76605e-70
-1.01352e-66
1.75597e-67
-1.79574e-65
3.99232e-66
-3.23233e-65
3.85463e-65
1.90736e-65
7.15253e-64
8.48403e-65
6.76706e-64
5.04815e-65
-7.19256e-64
-5.04811e-65
-1.43086e-63
-8.48339e-65
-7.19256e-64
-1.89249e-65
6.76692e-64
3.37118e-65
7.1499e-64
3.14911e-65
8.91433e-43
1.97951e-44
4.21158e-44
4.98003e-46
1.34249e-45
1.87245e-47
5.35694e-47
5.49176e-49
1.60479e-48
1.91756e-50
5.57988e-50
5.3509e-52
1.56737e-51
1.66324e-53
4.84868e-53
4.35934e-55
1.27615e-54
1.2217e-56
3.56409e-56
3.0045e-58
8.78964e-58
7.67531e-60
2.23987e-59
1.77101e-61
5.1779e-61
4.1578e-63
1.21344e-62
9.00322e-65
2.63051e-64
1.95814e-66
5.33622e-66
1.26128e-67
-5.28391e-67
8.46584e-67
7.39934e-67
1.56895e-65
2.01676e-66
1.41636e-65
-3.68795e-67
-3.06977e-65
-2.70282e-66
-2.99347e-65
-3.68789e-67
2.99351e-65
2.01671e-66
3.07144e-65
7.3759e-67
-1.41609e-65
-6.44404e-67
-1.56894e-65
-3.66802e-67
-8.47098e-67
-2.08148e-68
-8.61941e-68
-2.08974e-69
1.15202e-68
-2.08211e-69
-1.53436e-68
-2.08922e-68
3.0621e-69
-3.68706e-67
8.65902e-68
-6.63219e-67
8.50354e-67
3.91692e-67
1.57736e-65
1.7412e-66
1.49235e-65
1.03601e-66
-1.58607e-65
-1.03599e-66
-3.15525e-65
-1.74107e-66
-1.5843e-65
-3.88662e-67
1.49213e-65
6.9221e-67
1.57662e-65
6.83262e-67
4.88896e-43
5.66771e-44
2.30962e-44
1.77782e-45
7.37775e-46
7.14953e-47
2.94365e-47
2.13034e-48
8.83252e-49
7.45623e-50
3.07081e-50
2.08826e-51
8.63657e-52
6.48996e-53
2.67158e-53
1.70531e-54
7.03837e-55
4.77834e-56
1.96567e-56
1.17745e-57
4.85145e-58
3.00767e-59
1.23631e-59
6.95076e-61
2.85976e-61
1.63183e-62
6.70213e-63
3.53789e-64
1.45374e-64
7.68002e-66
3.14417e-66
1.55424e-67
5.10014e-68
-2.85476e-68
1.64485e-68
2.99431e-67
4.12598e-68
3.63925e-67
-7.57748e-69
-5.77969e-67
-5.4946e-68
-6.08402e-67
-7.19759e-69
6.29236e-67
4.09339e-68
1.39065e-66
1.47321e-68
-2.2643e-67
-1.32139e-68
-2.93711e-67
-7.17996e-69
-3.72766e-68
-4.24571e-70
8.82257e-69
-7.01463e-70
7.43194e-67
-5.84664e-71
-7.4477e-67
-9.25433e-71
-3.57627e-68
-7.50198e-69
-2.03518e-69
-1.35164e-68
2.02017e-68
7.98775e-69
3.74994e-67
3.55391e-68
3.69872e-67
2.15331e-68
-3.91262e-67
-2.08321e-68
-6.34181e-67
-3.59719e-68
4.77911e-67
-8.58981e-69
2.71142e-67
1.44793e-68
2.93732e-67
-6.75749e-67
2.25329e-44
2.12e-44
1.06587e-45
6.6921e-46
3.51988e-47
2.69283e-47
1.40308e-48
8.04569e-49
4.31122e-50
2.8155e-50
1.49632e-51
7.90098e-52
4.28225e-53
2.45506e-53
1.32215e-54
6.46084e-55
3.5285e-56
1.81012e-56
9.83671e-58
4.46569e-58
2.45121e-59
1.14063e-59
6.23655e-61
2.63845e-61
1.4529e-62
6.19406e-63
3.40035e-64
1.34388e-64
7.41307e-66
2.9037e-66
1.5897e-67
-7.55369e-68
5.16414e-69
-2.56706e-66
4.46771e-69
-1.17777e-66
9.43609e-70
3.84445e-66
-2.25643e-69
2.70036e-66
1.51919e-68
2.757e-67
1.78343e-68
6.55515e-67
-1.46766e-68
3.72797e-65
-1.80042e-68
3.19195e-66
-2.37456e-69
1.46082e-66
1.66044e-68
-1.04608e-66
8.84548e-71
4.18946e-67
-3.4432e-68
3.65025e-65
-8.59541e-70
-3.65805e-65
1.7457e-68
-1.73809e-66
1.86844e-69
-1.87065e-67
2.16433e-69
1.3795e-67
-1.0075e-69
2.68122e-66
-2.73312e-69
3.27341e-66
1.87628e-68
-3.4586e-66
1.79185e-68
5.41645e-67
-2.03443e-68
3.94927e-65
-3.36206e-68
-1.95843e-66
1.69797e-68
-1.43851e-66
-3.37537e-65
2.29607e-45
1.03241e-45
1.10489e-46
3.3692e-47
3.64874e-48
1.354e-48
1.46048e-49
4.14038e-50
4.46421e-51
1.4452e-51
1.5448e-52
4.12315e-53
4.38373e-54
1.27741e-54
1.34342e-55
3.40164e-56
3.5469e-57
9.50166e-58
9.78438e-59
2.36385e-59
2.4078e-60
6.0202e-61
6.04817e-62
1.40065e-62
1.3894e-63
3.27913e-64
3.20436e-65
7.11249e-66
6.321e-67
-5.19516e-67
-6.03609e-68
-6.53509e-66
1.11884e-67
-1.24465e-64
2.14599e-67
-5.73923e-65
7.516e-69
1.86016e-64
-1.13864e-67
1.31446e-64
7.79682e-67
1.33632e-65
8.73089e-67
2.39942e-65
-7.42113e-67
1.66529e-63
-8.86414e-67
1.47781e-64
-1.10439e-67
7.04669e-65
8.09418e-67
-5.12885e-65
8.45357e-69
1.37386e-65
-1.66647e-66
1.63543e-63
-4.14157e-68
-1.63922e-63
8.46544e-67
-7.76597e-65
1.01694e-67
-8.46723e-66
1.26308e-67
6.69994e-66
-6.09024e-68
1.29604e-64
-1.82093e-67
1.58817e-64
8.89331e-67
-1.67893e-64
8.91456e-67
1.97098e-65
-9.57634e-67
1.77351e-63
-1.61401e-66
-1.01833e-64
8.11192e-67
-6.45352e-65
-1.50367e-63
8.80309e-47
1.16717e-46
4.23983e-48
4.07027e-48
1.43014e-49
1.59038e-49
5.71865e-51
5.09396e-51
1.77419e-52
1.73185e-52
6.12822e-54
5.10082e-54
1.75737e-55
1.5438e-55
5.37353e-57
4.19674e-57
1.42909e-58
1.14822e-58
3.93252e-60
2.89055e-60
9.72418e-62
7.22443e-62
2.43618e-63
1.68878e-63
5.61104e-65
3.87489e-65
1.12996e-66
-6.00152e-67
-2.89716e-66
-3.33546e-65
-3.91959e-66
-3.18081e-64
5.82714e-66
-6.10974e-63
1.12076e-65
-2.81947e-63
3.77493e-67
9.13218e-63
-6.11603e-66
6.44835e-63
3.79165e-65
6.28653e-64
4.29497e-65
8.71971e-64
-3.61097e-65
7.66299e-62
-4.35013e-65
6.94811e-63
-5.75545e-66
3.43248e-63
3.96507e-65
-2.54459e-63
5.99755e-67
3.94321e-64
-8.17371e-65
7.54731e-62
-2.00631e-66
-7.56576e-62
4.15746e-65
-3.53146e-63
5.14955e-66
-3.90513e-64
6.51469e-66
3.26571e-64
-3.26105e-66
6.35191e-63
-9.61511e-66
7.62908e-63
4.37156e-65
-8.28022e-63
4.39269e-65
6.6191e-64
-4.72215e-65
8.19504e-62
-7.88936e-65
-5.28575e-63
3.99229e-65
-2.93063e-63
-6.90554e-62
-1.04787e-47
2.61651e-46
-3.46113e-49
1.25511e-47
-2.03844e-50
4.25337e-49
-6.52563e-52
1.69973e-50
-2.89299e-53
5.29356e-52
-8.73514e-55
1.8279e-53
-3.18746e-56
5.25679e-55
-8.99315e-58
1.60719e-56
-2.82798e-59
4.2821e-58
-7.43136e-61
1.17801e-59
-2.06904e-62
2.91173e-61
-5.05879e-64
7.281e-63
-1.34455e-65
1.62728e-64
-8.08774e-66
-6.20852e-65
-1.41515e-64
-1.51725e-63
-1.89669e-64
-1.42281e-62
2.81961e-64
-2.73203e-61
5.42273e-64
-1.26074e-61
1.75655e-65
4.08385e-61
-3.04365e-64
2.88296e-61
1.67421e-63
2.68064e-62
1.9255e-63
2.46689e-62
-1.59461e-63
3.13938e-60
-1.9451e-63
2.96341e-61
-2.7779e-64
1.52103e-61
1.76726e-63
-1.15119e-61
3.68228e-65
4.60757e-63
-3.64966e-63
3.102e-60
-8.9275e-65
-3.11027e-60
1.85969e-63
-1.44895e-61
2.41415e-64
-1.61644e-62
3.15153e-64
1.46882e-62
-1.57887e-64
2.84106e-61
-4.74342e-64
3.43611e-61
1.95419e-63
-3.71537e-61
1.97345e-63
1.5247e-62
-2.12502e-63
3.37735e-60
-3.50733e-63
-2.49518e-61
1.78954e-63
-1.20385e-61
-2.81817e-60
-4.81081e-46
6.65877e-45
-1.79852e-47
3.21092e-46
-8.63785e-49
1.06004e-47
-2.9216e-50
4.25831e-49
-1.15959e-51
1.30216e-50
-3.58879e-53
4.51799e-52
-1.22681e-54
1.28278e-53
-3.49631e-56