/*--------------------------------*- C++ -*----------------------------------*\
| =========                 |                                                 |
| \\      /  F ield         | OpenFOAM: The Open Source CFD Toolbox           |
|  \\    /   O peration     | Version:  2.4.0                                 |
|   \\  /    A nd           | Web:      www.OpenFOAM.org                      |
|    \\/     M anipulation  |                                                 |
\*---------------------------------------------------------------------------*/
FoamFile
{
    version     2.0;
    format      ascii;
    class       volVectorField;
    location    "0.15";
    object      U;
}
// * * * * * * * * * * * * * * * * * * * * * * * * * * * * * * * * * * * * * //

dimensions      [0 1 -1 0 0 0 0];

internalField   nonuniform List<vector> 
1915
(
(1.69593e-46 -1.63629e-43 0)
(5.74817e-45 -6.89193e-45 0)
(9.6171e-46 -3.52673e-42 0)
(1.28346e-43 -1.45338e-43 0)
(1.92972e-44 -6.47867e-41 0)
(2.7886e-42 -2.66307e-42 0)
(3.20156e-43 -1.31214e-39 0)
(5.10319e-41 -5.23344e-41 0)
(5.68322e-42 -2.05029e-38 0)
(1.02965e-39 -8.20267e-40 0)
(7.02952e-41 -3.89621e-37 0)
(1.59986e-38 -1.49595e-38 0)
(1.00112e-39 -4.87136e-36 0)
(3.02534e-37 -1.89689e-37 0)
(4.9226e-39 -8.94508e-35 0)
(3.73559e-36 -3.27581e-36 0)
(1.48101e-38 -7.86074e-34 0)
(6.77501e-35 -2.99459e-35 0)
(-9.53495e-37 -1.52596e-32 0)
(5.52051e-34 -5.22094e-34 0)
(-1.89069e-37 -4.13342e-38 0)
(-5.56136e-36 -4.75586e-37 0)
(-3.74844e-35 -1.3755e-35 0)
(-1.37852e-33 -1.28843e-35 0)
(-1.34644e-33 2.71587e-35 0)
(1.34644e-33 2.71587e-35 0)
(1.37852e-33 -1.28843e-35 0)
(3.74844e-35 -1.3755e-35 0)
(5.56162e-36 -4.7564e-37 0)
(1.80799e-37 -4.22785e-38 0)
(1.5324e-38 -1.41857e-39 0)
(5.10055e-40 -8.7309e-41 0)
(-6.20472e-47 -5.68877e-42 0)
(-5.10056e-40 -8.73091e-41 0)
(-1.5324e-38 -1.41857e-39 0)
(-1.808e-37 -4.22787e-38 0)
(-5.56165e-36 -4.75643e-37 0)
(-3.74849e-35 -1.37551e-35 0)
(-1.37854e-33 -1.28857e-35 0)
(-1.34662e-33 2.71163e-35 0)
(1.34086e-33 2.66816e-35 0)
(1.34086e-33 -2.66816e-35 0)
(-1.34662e-33 -2.71163e-35 0)
(-1.37854e-33 1.28857e-35 0)
(-3.74849e-35 1.37551e-35 0)
(-5.56165e-36 4.75643e-37 0)
(-1.80801e-37 4.22785e-38 0)
(-1.53553e-38 1.41572e-39 0)
(-1.02311e-39 -1.33949e-43 0)
(-1.53854e-38 -1.41843e-39 0)
(-1.81281e-37 -4.23629e-38 0)
(-5.57646e-36 -4.76974e-37 0)
(-3.76503e-35 -1.37959e-35 0)
(-1.38392e-33 -1.3319e-35 0)
(-1.37852e-33 1.38384e-35 0)
(-7.18745e-43 2.75947e-35 0)
(1.37852e-33 1.38384e-35 0)
(1.38392e-33 -1.3319e-35 0)
(3.76357e-35 -1.37961e-35 0)
(5.49582e-36 -4.53104e-37 0)
(-1.29437e-38 1.98533e-38 0)
(-3.34883e-37 2.39574e-37 0)
(-2.53565e-36 6.93846e-36 0)
(-6.66215e-35 6.49932e-36 0)
(-6.44092e-35 -1.36992e-35 0)
(6.44092e-35 -1.36992e-35 0)
(6.66215e-35 6.49932e-36 0)
(2.53565e-36 6.93846e-36 0)
(3.34906e-37 2.39609e-37 0)
(1.25908e-38 2.10296e-38 0)
(1.01577e-39 7.02459e-40 0)
(3.68598e-41 4.29207e-41 0)
(-4.7539e-48 2.78545e-42 0)
(-3.68599e-41 4.29208e-41 0)
(-1.01577e-39 7.02461e-40 0)
(-1.25908e-38 2.10297e-38 0)
(-3.34909e-37 2.3961e-37 0)
(-2.53569e-36 6.93851e-36 0)
(-6.66225e-35 6.50002e-36 0)
(-6.44218e-35 -1.36781e-35 0)
(6.40732e-35 -1.34589e-35 0)
(6.40732e-35 1.34589e-35 0)
(-6.44218e-35 1.36781e-35 0)
(-6.66225e-35 -6.50002e-36 0)
(-2.53569e-36 -6.93851e-36 0)
(-3.34909e-37 -2.3961e-37 0)
(-1.25909e-38 -2.10296e-38 0)
(-1.01797e-39 -7.01064e-40 0)
(-7.39437e-41 6.53147e-44 0)
(-1.02009e-39 7.02391e-40 0)
(-1.26256e-38 2.10711e-38 0)
(-3.35887e-37 2.40269e-37 0)
(-2.54726e-36 6.95883e-36 0)
(-6.69448e-35 6.71856e-36 0)
(-6.66215e-35 -6.97995e-36 0)
(-6.26182e-44 -1.39191e-35 0)
(6.66215e-35 -6.97994e-36 0)
(6.69448e-35 6.71859e-36 0)
(2.54614e-36 6.95852e-36 0)
(3.28121e-37 2.01035e-37 0)
(-1.68379e-39 1.30741e-39 0)
(-3.80669e-38 1.65133e-38 0)
(-1.2307e-37 4.01581e-37 0)
(-2.18637e-36 3.71195e-37 0)
(-2.09996e-36 -7.9074e-37 0)
(2.09996e-36 -7.9074e-37 0)
(2.18637e-36 3.71195e-37 0)
(1.23069e-37 4.01581e-37 0)
(3.8066e-38 1.65155e-38 0)
(1.54664e-39 1.39432e-39 0)
(1.50935e-40 5.09467e-41 0)
(5.6147e-42 3.03711e-42 0)
(-8.07933e-49 2.09377e-43 0)
(-5.61472e-42 3.03711e-42 0)
(-1.50936e-40 5.09469e-41 0)
(-1.54665e-39 1.39432e-39 0)
(-3.80664e-38 1.65156e-38 0)
(-1.23075e-37 4.01584e-37 0)
(-2.18652e-36 3.71246e-37 0)
(-2.10152e-36 -7.89343e-37 0)
(2.06175e-36 -7.74174e-37 0)
(2.06175e-36 7.74174e-37 0)
(-2.10152e-36 7.89343e-37 0)
(-2.18652e-36 -3.71246e-37 0)
(-1.23075e-37 -4.01584e-37 0)
(-3.80664e-38 -1.65156e-38 0)
(-1.54667e-39 -1.39432e-39 0)
(-1.51296e-40 -5.08419e-41 0)
(-1.12662e-41 4.83595e-45 0)
(-1.51642e-40 5.09417e-41 0)
(-1.55193e-39 1.39725e-39 0)
(-3.82117e-38 1.65635e-38 0)
(-1.2447e-37 4.02928e-37 0)
(-2.22303e-36 3.86364e-37 0)
(-2.18637e-36 -4.04328e-37 0)
(-1.89702e-45 -8.05958e-37 0)
(2.18637e-36 -4.04328e-37 0)
(2.22303e-36 3.86367e-37 0)
(1.24481e-37 4.02907e-37 0)
(3.84629e-38 1.38732e-38 0)
(-1.01398e-40 1.9657e-40 0)
(-2.06298e-39 2.10958e-39 0)
(-4.42899e-39 5.02704e-38 0)
(-5.49805e-38 4.64471e-38 0)
(-5.25309e-38 -9.90454e-38 0)
(5.25309e-38 -9.90454e-38 0)
(5.49805e-38 4.64471e-38 0)
(4.42897e-39 5.02705e-38 0)
(2.06286e-39 2.11009e-39 0)
(9.23425e-41 2.09437e-40 0)
(9.27182e-42 7.8194e-42 0)
(3.6542e-43 4.99691e-43 0)
(-5.62698e-50 3.46546e-44 0)
(-3.65421e-43 4.99692e-43 0)
(-9.27186e-42 7.81942e-42 0)
(-9.23433e-41 2.09438e-40 0)
(-2.06288e-39 2.11011e-39 0)
(-4.42934e-39 5.0271e-38 0)
(-5.49898e-38 4.6455e-38 0)
(-5.26236e-38 -9.88355e-38 0)
(5.04588e-38 -9.69275e-38 0)
(5.04588e-38 9.69275e-38 0)
(-5.26236e-38 9.88355e-38 0)
(-5.49898e-38 -4.6455e-38 0)
(-4.42934e-39 -5.0271e-38 0)
(-2.06288e-39 -2.11011e-39 0)
(-9.23442e-41 -2.09437e-40 0)
(-9.29539e-42 -7.80204e-42 0)
(-7.33342e-43 8.23249e-46 0)
(-9.31795e-42 7.81854e-42 0)
(-9.2687e-41 2.09919e-40 0)
(-2.07179e-39 2.11743e-39 0)
(-4.51239e-39 5.04726e-38 0)
(-5.69599e-38 4.83551e-38 0)
(-5.49805e-38 -5.0683e-38 0)
(-1.60553e-47 -1.00961e-37 0)
(5.49805e-38 -5.0683e-38 0)
(5.696e-38 4.83551e-38 0)
(4.51523e-39 5.04667e-38 0)
(2.10277e-39 1.73243e-39 0)
(-8.41199e-42 1.20541e-41 0)
(-1.63031e-40 1.27257e-40 0)
(-2.04704e-40 2.79051e-39 0)
(-8.60287e-40 2.56027e-39 0)
(-8.11908e-40 -5.49151e-39 0)
(8.11908e-40 -5.49151e-39 0)
(8.60287e-40 2.56027e-39 0)
(2.04702e-40 2.79051e-39 0)
(1.63011e-40 1.27291e-40 0)
(7.4612e-42 1.28906e-41 0)
(8.02866e-43 5.09572e-43 0)
(3.19381e-44 3.26745e-44 0)
(-5.07552e-51 2.35666e-45 0)
(-3.19382e-44 3.26746e-44 0)
(-8.0287e-43 5.09574e-43 0)
(-7.46128e-42 1.28906e-41 0)
(-1.63013e-40 1.27292e-40 0)
(-2.04734e-40 2.79054e-39 0)
(-8.61092e-40 2.56078e-39 0)
(-8.19401e-40 -5.47858e-39 0)
(6.48092e-40 -5.3637e-39 0)
(6.48092e-40 5.3637e-39 0)
(-8.19401e-40 5.47858e-39 0)
(-8.61092e-40 -2.56078e-39 0)
(-2.04734e-40 -2.79054e-39 0)
(-1.63013e-40 -1.27292e-40 0)
(-7.46136e-42 -1.28906e-41 0)
(-8.04979e-43 -5.08392e-43 0)
(-6.4101e-44 5.58641e-47 0)
(-8.07001e-43 5.09514e-43 0)
(-7.49127e-42 1.2922e-41 0)
(-1.63784e-40 1.27769e-40 0)
(-2.1139e-40 2.80292e-39 0)
(-1.01661e-39 2.67515e-39 0)
(-8.60287e-40 -2.81588e-39 0)
(2.18376e-47 -5.60686e-39 0)
(8.60288e-40 -2.81588e-39 0)
(1.01663e-39 2.67515e-39 0)
(2.11956e-40 2.8025e-39 0)
(1.6846e-40 1.04002e-40 0)
(-4.69673e-43 1.04654e-42 0)
(-8.57912e-42 1.03784e-41 0)
(-8.69722e-42 2.25645e-40 0)
(8.72433e-44 2.06994e-40 0)
(5.77054e-43 -4.44188e-40 0)
(-5.77054e-43 -4.44188e-40 0)
(-8.72466e-44 2.06994e-40 0)
(8.69709e-42 2.25646e-40 0)
(8.57775e-42 1.0382e-41 0)
(4.13871e-43 1.11889e-42 0)
(4.51507e-44 4.46136e-44 0)
(1.86141e-45 2.9327e-45 0)
(-3.07137e-52 2.12019e-46 0)
(-1.86142e-45 2.93271e-45 0)
(-4.51509e-44 4.46138e-44 0)
(-4.13876e-43 1.11889e-42 0)
(-8.57787e-42 1.03821e-41 0)
(-8.69896e-42 2.25648e-40 0)
(4.19727e-44 2.07039e-40 0)
(1.61313e-43 -4.43066e-40 0)
(-9.20007e-42 -4.33761e-40 0)
(-9.20007e-42 4.33761e-40 0)
(1.61313e-43 4.43066e-40 0)
(4.19727e-44 -2.07039e-40 0)
(-8.69896e-42 -2.25648e-40 0)
(-8.57787e-42 -1.03821e-41 0)
(-4.1388e-43 -1.11889e-42 0)
(-4.5274e-44 -4.45075e-44 0)
(-3.73628e-45 5.06424e-48 0)
(-4.5392e-44 4.46084e-44 0)
(-4.15623e-43 1.12171e-42 0)
(-8.62115e-42 1.04238e-41 0)
(-9.06755e-42 2.26723e-40 0)
(-8.12003e-42 2.16299e-40 0)
(8.72466e-44 -2.27847e-40 0)
(1.86405e-48 -4.53535e-40 0)
(-8.71889e-44 -2.27847e-40 0)
(8.12149e-42 2.16298e-40 0)
(9.10566e-42 2.26679e-40 0)
(8.92025e-42 8.38086e-42 0)
(-2.99657e-44 6.27403e-44 0)
(-5.49611e-43 5.76881e-43 0)
(-4.98933e-43 1.19513e-41 0)
(1.21327e-42 1.09149e-41 0)
(1.18678e-42 -2.35095e-41 0)
(-1.18678e-42 -2.35095e-41 0)
(-1.21327e-42 1.09149e-41 0)
(4.98938e-43 1.19513e-41 0)
(5.49261e-43 5.7753e-43 0)
(2.67075e-44 6.2969e-44 0)
(2.9858e-45 2.60175e-45 0)
(1.23683e-46 1.71278e-46 0)
(-2.04017e-53 1.26928e-47 0)
(-1.23683e-46 1.71279e-46 0)
(-2.98582e-45 2.60176e-45 0)
(-2.67078e-44 6.29693e-44 0)
(-5.49269e-43 5.77536e-43 0)
(-4.99062e-43 1.19515e-41 0)
(1.21027e-42 1.09175e-41 0)
(1.15995e-42 -2.34463e-41 0)
(-1.73904e-42 -2.29293e-41 0)
(-1.73904e-42 2.29293e-41 0)
(1.15995e-42 2.34463e-41 0)
(1.21027e-42 -1.09175e-41 0)
(-4.99062e-43 -1.19515e-41 0)
(-5.49269e-43 -5.77536e-43 0)
(-2.67081e-44 -6.2969e-44 0)
(-2.99406e-45 -2.5954e-45 0)
(-2.48267e-46 3.02311e-49 0)
(-3.00195e-45 2.60144e-45 0)
(-2.68239e-44 6.31336e-44 0)
(-5.52131e-43 5.79966e-43 0)
(-5.22776e-43 1.20118e-41 0)
(6.87843e-43 1.14319e-41 0)
(1.21327e-42 -1.20751e-41 0)
(1.77451e-49 -2.40289e-41 0)
(-1.21326e-42 -1.20751e-41 0)
(-6.87727e-43 1.14318e-41 0)
(5.25812e-43 1.20091e-41 0)
(5.7494e-43 4.65156e-43 0)
(2.17729e-44 1.83228e-43 0)
(-2.89899e-44 2.54784e-44 0)
(-2.35323e-44 7.67292e-43 0)
(7.48239e-44 7.01088e-43 0)
(7.2684e-44 -1.51074e-42 0)
(-7.2683e-44 -1.51074e-42 0)
(-7.48061e-44 7.01121e-43 0)
(2.3869e-44 7.67938e-43 0)
(2.72116e-44 3.73322e-44 0)
(1.36658e-45 4.1672e-45 0)
(1.53208e-46 1.7299e-46 0)
(6.49396e-48 1.14707e-47 0)
(-1.08471e-54 8.51023e-49 0)
(-6.49399e-48 1.14707e-47 0)
(-1.53209e-46 1.72991e-46 0)
(-1.36659e-45 4.16722e-45 0)
(-2.7212e-44 3.73326e-44 0)
(-2.38755e-44 7.67949e-43 0)
(7.46525e-44 7.01295e-43 0)
(7.13099e-44 -1.50656e-42 0)
(-1.00048e-43 -1.47324e-42 0)
(-1.00048e-43 1.47324e-42 0)
(7.13099e-44 1.50656e-42 0)
(7.46525e-44 -7.01295e-43 0)
(-2.38755e-44 -7.67949e-43 0)
(-2.7212e-44 -3.73326e-44 0)
(-1.36661e-45 -4.1672e-45 0)
(-1.5364e-46 -1.72564e-46 0)
(-1.30359e-47 2.02481e-50 0)
(-1.54053e-46 1.72969e-46 0)
(-1.37269e-45 4.17822e-45 0)
(-2.73587e-44 3.74941e-44 0)
(-2.50885e-44 7.71943e-43 0)
(4.8814e-44 7.34448e-43 0)
(7.48061e-44 -7.76133e-43 0)
(1.09763e-50 -1.54423e-42 0)
(-7.48058e-44 -7.76133e-43 0)
(-4.88073e-44 7.34441e-43 0)
(2.52568e-44 7.71746e-43 0)
(2.86098e-44 2.99231e-44 0)
(1.53213e-42 6.93771e-43 0)
(-5.43861e-44 -1.86886e-43 0)
(8.64622e-45 2.70452e-44 0)
(4.82272e-45 3.42336e-44 0)
(4.2362e-45 -7.49087e-44 0)
(-4.2111e-45 -7.4893e-44 0)
(-4.34199e-45 3.46683e-44 0)
(1.28774e-45 3.8089e-44 0)
(1.48454e-45 1.91148e-45 0)
(7.49462e-47 2.13903e-46 0)
(8.45803e-48 9.08613e-48 0)
(3.5967e-49 6.009e-49 0)
(-5.90505e-56 4.52855e-50 0)
(-3.59672e-49 6.00901e-49 0)
(-8.45807e-48 9.08617e-48 0)
(-7.49471e-47 2.13904e-46 0)
(-1.48457e-45 1.9115e-45 0)
(-1.2881e-45 3.80896e-44 0)
(4.33354e-45 3.46774e-44 0)
(4.13673e-45 -7.46779e-44 0)
(-5.70506e-45 -7.29719e-44 0)
(-5.70506e-45 7.29719e-44 0)
(4.13673e-45 7.46779e-44 0)
(4.33354e-45 -3.46774e-44 0)
(-1.2881e-45 -3.80896e-44 0)
(-1.48457e-45 -1.9115e-45 0)
(-7.4948e-47 -2.13903e-46 0)
(-8.48194e-48 -9.06345e-48 0)
(-7.21995e-49 1.0719e-51 0)
(-8.50478e-48 9.08502e-48 0)
(-7.52848e-47 2.1448e-46 0)
(-1.49266e-45 1.91998e-45 0)
(-1.35456e-45 3.82944e-44 0)
(2.9243e-45 3.63744e-44 0)
(4.34202e-45 -3.85095e-44 0)
(7.06362e-52 -7.66071e-44 0)
(-4.342e-45 -3.85095e-44 0)
(-2.9239e-45 3.63739e-44 0)
(1.36464e-45 3.82836e-44 0)
(1.56714e-45 1.53225e-45 0)
(8.31148e-41 8.38857e-41 0)
(4.07568e-42 -5.1007e-42 0)
(2.04372e-43 -3.02307e-43 0)
(8.8676e-45 -7.77037e-45 0)
(5.15267e-46 -4.42315e-45 0)
(-1.83998e-46 -4.0864e-45 0)
(-2.01639e-46 1.88603e-45 0)
(5.87111e-47 2.07336e-45 0)
(6.80929e-47 1.04585e-46 0)
(3.51444e-48 1.17742e-47 0)
(3.95319e-49 5.01748e-49 0)
(1.70729e-50 3.31237e-50 0)
(-2.62135e-57 2.49736e-51 0)
(-1.7073e-50 3.31238e-50 0)
(-3.95321e-49 5.0175e-49 0)
(-3.51447e-48 1.17743e-47 0)
(-6.80936e-47 1.04587e-46 0)
(-5.87162e-47 2.0734e-45 0)
(2.01615e-46 1.88684e-45 0)
(1.92222e-46 -4.0648e-45 0)
(-2.64242e-46 -3.97152e-45 0)
(-2.64242e-46 3.97152e-45 0)
(1.92222e-46 4.0648e-45 0)
(2.01615e-46 -1.88684e-45 0)
(-5.87162e-47 -2.0734e-45 0)
(-6.80936e-47 -1.04587e-46 0)
(-3.51452e-48 -1.17742e-47 0)
(-3.96447e-49 -5.00497e-49 0)
(-3.42724e-50 5.87648e-53 0)
(-3.97525e-49 5.01687e-49 0)
(-3.53051e-48 1.1806e-47 0)
(-6.84718e-47 1.05055e-46 0)
(-6.18342e-47 2.08468e-45 0)
(1.37054e-46 1.97962e-45 0)
(2.02012e-46 -2.09652e-45 0)
(3.67731e-53 -4.17036e-45 0)
(-2.0201e-46 -2.09652e-45 0)
(-1.37034e-46 1.97959e-45 0)
(6.23259e-47 2.08405e-45 0)
(7.2121e-47 8.37605e-47 0)
(1.61885e-35 -7.50783e-32 0)
(1.26308e-32 -2.90761e-33 0)
(1.15319e-33 -3.32804e-30 0)
(-7.24749e-34 -9.13707e-32 0)
(5.12408e-32 3.89033e-31 0)
(2.43415e-32 1.07822e-32 0)
(1.153e-33 3.72707e-30 0)
(2.20852e-33 1.0254e-31 0)
(1.63218e-35 8.52771e-32 0)
(1.41153e-32 3.31059e-33 0)
(2.18323e-37 3.66344e-32 0)
(-3.39374e-34 1.40697e-33 0)
(1.5103e-36 1.71035e-31 0)
(-2.273e-32 6.60629e-33 0)
(2.96584e-36 5.91727e-30 0)
(-4.48701e-32 1.65721e-31 0)
(9.52271e-38 1.1909e-29 0)
(-1.4432e-33 3.30064e-31 0)
(-2.96279e-36 6.29633e-30 0)
(4.48276e-32 1.76117e-31 0)
(2.42084e-32 6.91632e-33 0)
(8.14438e-34 9.23607e-34 0)
(6.68713e-35 3.36731e-35 0)
(2.13129e-36 2.67836e-36 0)
(1.2329e-37 4.73575e-37 0)
(-6.71571e-39 6.41985e-36 0)
(-1.80071e-37 2.07075e-34 0)
(-5.88789e-36 2.48035e-33 0)
(-7.06958e-35 8.19815e-32 0)
(-2.22684e-33 5.52726e-31 0)
(-2.16186e-33 2.16194e-29 0)
(2.16186e-33 2.16194e-29 0)
(2.22684e-33 5.52726e-31 0)
(7.00342e-35 8.19797e-32 0)
(-5.3931e-35 2.46051e-33 0)
(-4.00811e-33 -4.48897e-34 0)
(-1.78145e-31 6.41455e-36 0)
(-4.00829e-33 6.56354e-34 0)
(-5.98189e-35 1.98516e-35 0)
(-6.61498e-37 1.81253e-36 0)
(6.968e-41 5.47239e-38 0)
(3.08472e-39 4.21316e-39 0)
(2.51093e-38 2.1331e-38 0)
(4.87295e-34 -9.64142e-35 0)
(4.93209e-35 -3.67099e-36 0)
(1.93392e-36 -2.37872e-37 0)
(1.31421e-37 -9.07375e-39 0)
(-2.27466e-35 -2.01503e-33 0)
(6.69255e-37 -3.66444e-35 0)
(7.77309e-38 -9.38935e-37 0)
(1.36073e-38 -2.60302e-38 0)
(6.84473e-34 2.20346e-34 0)
(1.63769e-34 3.52418e-36 0)
(6.79194e-36 2.86367e-38 0)
(6.95805e-37 -3.55752e-40 0)
(9.38882e-35 2.24857e-33 0)
(1.2314e-35 4.0486e-35 0)
(5.41927e-37 9.80127e-37 0)
(4.49118e-38 2.60594e-38 0)
(5.59614e-34 9.1331e-35 0)
(5.61412e-35 2.01277e-36 0)
(2.2284e-36 6.49945e-38 0)
(1.50923e-37 2.08491e-39 0)
(-1.57415e-35 1.28751e-34 0)
(-1.64851e-36 5.05319e-36 0)
(-7.1124e-38 3.36545e-37 0)
(-4.84045e-39 1.29123e-38 0)
(-9.09951e-34 2.75607e-34 0)
(-9.05631e-35 8.30464e-36 0)
(-3.6067e-36 4.34578e-37 0)
(-2.42165e-37 1.57396e-38 0)
(-1.78225e-33 3.46867e-33 0)
(-1.77357e-34 5.76281e-35 0)
(-7.03152e-36 6.63144e-37 0)
(-4.7219e-37 2.98219e-39 0)
(-5.71673e-35 6.74655e-33 0)
(-5.68903e-36 1.08007e-34 0)
(-2.25193e-37 8.88881e-37 0)
(-1.51237e-38 -1.02939e-38 0)
(1.78027e-33 3.67588e-33 0)
(1.77162e-34 6.0808e-35 0)
(7.02314e-36 6.76893e-37 0)
(4.71631e-37 2.12056e-39 0)
(9.68741e-34 2.81715e-34 0)
(9.6444e-35 8.36882e-36 0)
(3.84029e-36 4.30906e-37 0)
(2.57892e-37 1.55267e-38 0)
(3.79204e-35 8.43056e-35 0)
(3.87102e-36 3.31153e-36 0)
(1.67001e-37 2.19817e-37 0)
(1.1301e-38 8.43142e-39 0)
(3.08956e-36 3.31647e-36 0)
(3.63592e-37 1.42579e-37 0)
(1.59295e-38 9.616e-39 0)
(1.13882e-39 3.88434e-40 0)
(1.06058e-37 3.09903e-37 0)
(1.27615e-38 1.36375e-38 0)
(5.87228e-40 9.73328e-40 0)
(4.22639e-41 3.96947e-41 0)
(-6.9834e-39 3.04879e-38 0)
(4.73094e-41 2.92713e-39 0)
(-5.51082e-41 1.49644e-40 0)
(-1.77397e-42 9.76541e-42 0)
(-4.33154e-37 3.32851e-37 0)
(-2.29062e-38 3.86557e-38 0)
(-2.84198e-39 1.80844e-39 0)
(-1.32746e-40 1.28193e-40 0)
(-7.27559e-36 9.86748e-36 0)
(-3.88141e-37 1.12605e-36 0)
(-4.53181e-38 4.98034e-38 0)
(-2.11561e-39 3.51872e-39 0)
(-2.34238e-34 1.1922e-34 0)
(-1.14876e-35 1.14342e-35 0)
(-1.32011e-36 4.94471e-37 0)
(-5.83178e-38 3.27893e-38 0)
(-2.71491e-33 3.413e-33 0)
(-1.33808e-34 3.06808e-34 0)
(-1.32645e-35 1.21073e-35 0)
(-5.76756e-37 7.93774e-37 0)
(-8.47202e-32 2.31631e-32 0)
(-3.56595e-33 7.93868e-34 0)
(-3.48621e-34 2.07417e-35 0)
(-1.39749e-35 8.79218e-37 0)
(-8.22326e-32 6.49686e-31 0)
(-3.44326e-33 1.36953e-32 0)
(-3.36634e-34 2.19794e-34 0)
(-1.34545e-35 1.87913e-36 0)
(8.22326e-32 6.49686e-31 0)
(3.44326e-33 1.36953e-32 0)
(3.36633e-34 2.19795e-34 0)
(1.34545e-35 1.87916e-36 0)
(8.47202e-32 2.31632e-32 0)
(3.56594e-33 7.93928e-34 0)
(3.48616e-34 2.07452e-35 0)
(1.39746e-35 8.79593e-37 0)
(2.71425e-33 3.41492e-33 0)
(1.33701e-34 3.08808e-34 0)
(1.31924e-35 1.22111e-35 0)
(5.72739e-37 8.04983e-37 0)
(1.74718e-34 1.40203e-34 0)
(6.17384e-36 3.3341e-35 0)
(-1.11053e-36 1.62356e-36 0)
(-6.4666e-38 1.37901e-37 0)
(-3.98413e-33 7.03648e-34 0)
(-1.95047e-34 7.20835e-34 0)
(-3.00042e-35 3.1748e-35 0)
(-1.40111e-36 2.94674e-36 0)
(-1.77602e-31 3.32191e-37 0)
(-6.24231e-33 3.863e-38 0)
(-9.62771e-34 1.80916e-39 0)
(-3.91181e-35 1.51115e-40 0)
(-3.99139e-33 -6.93761e-34 0)
(-1.95434e-34 -7.19707e-34 0)
(-3.00494e-35 -3.16981e-35 0)
(-1.40276e-36 -2.94273e-36 0)
(-5.95196e-35 -2.0982e-35 0)
(-5.31364e-36 -2.19066e-35 0)
(-2.43007e-36 -1.12729e-36 0)
(-1.13276e-37 -8.98378e-38 0)
(-6.57611e-37 -1.91604e-36 0)
(-1.05178e-37 -1.99844e-36 0)
(-5.42087e-38 -7.61622e-38 0)
(3.22334e-37 2.37064e-37 0)
(1.51828e-39 -5.517e-38 0)
(2.81023e-38 -2.35963e-38 0)
(2.88046e-37 8.24896e-37 0)
(5.39482e-36 7.51934e-36 0)
(4.34889e-38 1.86137e-38 0)
(9.74397e-37 3.32998e-37 0)
(8.92354e-36 7.72463e-36 0)
(1.81448e-34 8.07718e-35 0)
(3.969e-37 5.74595e-37 0)
(9.16667e-36 8.70771e-36 0)
(1.00139e-34 2.16579e-34 0)
(2.21802e-33 2.26514e-33 0)
(4.63559e-39 -3.63174e-40 0)
(2.25304e-40 -5.24324e-42 0)
(7.15882e-42 -1.51086e-43 0)
(2.91757e-43 -4.35357e-45 0)
(8.75193e-45 -3.08793e-46 0)
(3.02247e-46 -1.42383e-46 0)
(1.46944e-48 6.31871e-47 0)
(2.36735e-48 6.97824e-47 0)
(2.43853e-48 3.59202e-48 0)
(1.25727e-49 4.07236e-49 0)
(1.40756e-50 1.76238e-50 0)
(6.07011e-52 1.16503e-51 0)
(2.94742e-57 8.87786e-53 0)
(-6.06882e-52 1.16503e-51 0)
(-1.40706e-50 1.7624e-50 0)
(-1.25524e-49 4.07243e-49 0)
(-2.43134e-48 3.59223e-48 0)
(-2.09452e-48 6.97887e-47 0)
(7.23027e-48 6.33858e-47 0)
(6.89288e-48 -1.36766e-46 0)
(-9.46442e-48 -1.33564e-46 0)
(-9.46442e-48 1.33564e-46 0)
(6.89288e-48 1.36766e-46 0)
(7.23027e-48 -6.33858e-47 0)
(-2.09452e-48 -6.97887e-47 0)
(-2.43134e-48 -3.59223e-48 0)
(-1.25526e-49 -4.07241e-49 0)
(-1.41104e-50 -1.75794e-50 0)
(-1.21821e-51 2.08456e-54 0)
(-1.41484e-50 1.76217e-50 0)
(-1.26095e-49 4.08359e-49 0)
(-2.4448e-48 3.60869e-48 0)
(-2.20593e-48 7.01783e-47 0)
(4.9251e-48 6.65696e-47 0)
(7.24438e-48 -7.05878e-47 0)
(1.41099e-54 -1.40392e-46 0)
(-7.24434e-48 -7.05879e-47 0)
(-4.92435e-48 6.65685e-47 0)
(2.22469e-48 7.01557e-47 0)
(2.58647e-48 2.87256e-48 0)
(6.35563e-40 -1.4283e-39 0)
(4.55571e-41 -4.78053e-41 0)
(1.74408e-42 -2.38837e-42 0)
(9.05064e-44 -7.7544e-44 0)
(3.12874e-45 -3.22739e-45 0)
(1.31599e-46 -1.02506e-46 0)
(3.98921e-48 -1.43851e-48 0)
(2.05419e-49 2.17651e-48 0)
(6.82955e-50 1.14158e-49 0)
(3.48827e-51 1.30831e-50 0)
(3.78583e-52 5.66708e-52 0)
(1.64455e-53 3.70876e-53 0)
(2.74073e-57 2.81818e-54 0)
(-1.63371e-53 3.71466e-53 0)
(-3.74778e-52 5.6908e-52 0)
(-3.34835e-51 1.31668e-50 0)
(-6.3884e-50 1.17305e-49 0)
(-5.48886e-50 2.2762e-48 0)
(1.901e-49 2.06686e-48 0)
(1.81089e-49 -4.46033e-48 0)
(-2.48712e-49 -4.35566e-48 0)
(-2.48712e-49 4.35566e-48 0)
(1.81089e-49 4.46033e-48 0)
(1.901e-49 -2.06686e-48 0)
(-5.48886e-50 -2.2762e-48 0)
(-6.3884e-50 -1.17305e-49 0)
(-3.34839e-51 -1.31668e-50 0)
(-3.75843e-52 -5.67666e-52 0)
(-3.27941e-53 6.53139e-56 0)
(-3.76861e-52 5.6901e-52 0)
(-3.3637e-51 1.32024e-50 0)
(-6.42424e-50 1.17837e-49 0)
(-5.7861e-50 2.2888e-48 0)
(1.29581e-49 2.17096e-48 0)
(1.90475e-49 -2.30204e-48 0)
(4.04301e-56 -4.57874e-48 0)
(-1.90474e-49 -2.30204e-48 0)
(-1.2956e-49 2.17092e-48 0)
(5.83778e-50 2.28804e-48 0)
(6.8155e-50 9.41059e-50 0)
(2.63144e-38 -4.45033e-41 0)
(1.66016e-39 -1.54294e-42 0)
(5.68479e-41 -6.35911e-44 0)
(2.79827e-42 -1.90046e-45 0)
(9.024e-44 -6.66343e-47 0)
(3.69791e-45 -1.98076e-48 0)
(1.11794e-46 -2.74597e-51 0)
(3.96097e-48 5.92305e-50 0)
(1.13895e-49 3.13764e-51 0)
(3.60949e-51 3.54537e-52 0)
(1.03747e-52 1.5507e-53 0)
(3.09068e-54 1.00715e-54 0)
(6.50506e-56 7.69623e-56 0)
(-4.6499e-55 1.00777e-54 0)
(-1.0725e-53 1.55337e-53 0)
(-9.68775e-53 3.55585e-52 0)
(-1.84817e-51 3.18017e-51 0)
(-1.58752e-51 6.07491e-50 0)
(5.49985e-51 5.50709e-50 0)
(5.23877e-51 -1.18999e-49 0)
(-7.195e-51 -1.1616e-49 0)
(-7.195e-51 1.1616e-49 0)
(5.23877e-51 1.18999e-49 0)
(5.49985e-51 -5.50709e-50 0)
(-1.58752e-51 -6.07491e-50 0)
(-1.84817e-51 -3.18017e-51 0)
(-9.68786e-53 -3.55583e-52 0)
(-1.07551e-53 -1.54951e-53 0)
(-9.36686e-55 1.76977e-57 0)
(-1.07838e-53 1.55318e-53 0)
(-9.73164e-53 3.5655e-52 0)
(-1.85842e-51 3.1947e-51 0)
(-1.67364e-51 6.10892e-50 0)
(3.74906e-51 5.78944e-50 0)
(5.5106e-51 -6.14467e-50 0)
(1.20294e-57 -1.22209e-49 0)
(-5.51057e-51 -6.14468e-50 0)
(-3.74844e-51 5.78933e-50 0)
(1.68883e-51 6.10681e-50 0)
(1.97594e-51 2.55502e-51 0)
(1.73635e-39 1.40205e-39 0)
(9.84114e-41 4.68791e-41 0)
(3.41281e-42 2.35104e-42 0)
(1.57698e-43 7.64384e-44 0)
(5.1292e-45 3.18449e-45 0)
(2.01751e-46 9.69563e-47 0)
(6.13739e-48 3.47328e-48 0)
(2.11385e-49 1.00555e-49 0)
(6.05504e-51 3.21322e-51 0)
(1.87116e-52 9.32201e-53 0)
(5.17671e-54 2.79992e-54 0)
(1.48259e-55 8.70792e-56 0)
(3.39233e-57 3.67795e-57 0)
(-1.17037e-56 2.85213e-56 0)
(-2.68907e-55 4.44941e-55 0)
(-2.45e-54 1.02046e-53 0)
(-4.61683e-53 9.23421e-53 0)
(-3.95696e-53 1.76348e-51 0)
(1.37368e-52 1.59837e-51 0)
(1.30758e-52 -3.45417e-51 0)
(-1.79657e-52 -3.37161e-51 0)
(-1.79657e-52 3.37161e-51 0)
(1.30758e-52 3.45417e-51 0)
(1.37368e-52 -1.59837e-51 0)
(-3.95696e-53 -1.76348e-51 0)
(-4.61683e-53 -9.23421e-53 0)
(-2.45003e-54 -1.02045e-53 0)
(-2.6966e-55 -4.43853e-55 0)
(-2.36644e-56 4.91427e-59 0)
(-2.70379e-55 4.44888e-55 0)
(-2.46109e-54 1.02319e-53 0)
(-4.64254e-53 9.27586e-53 0)
(-4.17499e-53 1.77324e-51 0)
(9.36619e-53 1.68048e-51 0)
(1.37637e-52 -1.7835e-51 0)
(3.14959e-59 -3.54737e-51 0)
(-1.37636e-52 -1.7835e-51 0)
(-9.36458e-53 1.68045e-51 0)
(4.21371e-53 1.77262e-51 0)
(4.94605e-53 7.44458e-53 0)
(5.30239e-39 1.05238e-40 0)
(2.56632e-40 3.54074e-42 0)
(8.1426e-42 1.60794e-43 0)
(3.30935e-43 5.20111e-45 0)
(9.90804e-45 2.02976e-46 0)
(3.49642e-46 6.15048e-48 0)
(9.84108e-48 2.10626e-49 0)
(3.08267e-49 6.0113e-51 0)
(8.14509e-51 1.84919e-52 0)
(2.30021e-52 5.09448e-54 0)
(5.70623e-54 1.45325e-55 0)
(1.46991e-55 4.03782e-57 0)
(3.4107e-57 1.38689e-58 0)
(-2.24065e-58 7.15067e-58 0)
(-6.96333e-57 1.12469e-56 0)
(-6.4303e-56 2.55993e-55 0)
(-1.21169e-54 2.33692e-54 0)
(-1.03824e-54 4.40824e-53 0)
(3.60479e-54 3.98995e-53 0)
(3.43106e-54 -8.63181e-53 0)
(-4.71432e-54 -8.42266e-53 0)
(-4.71432e-54 8.42266e-53 0)
(3.43106e-54 8.63181e-53 0)
(3.60479e-54 -3.98995e-53 0)
(-1.03824e-54 -4.40824e-53 0)
(-1.21169e-54 -2.33692e-54 0)
(-6.43037e-56 -2.55992e-55 0)
(-6.98423e-57 -1.12195e-56 0)
(-6.11622e-58 1.22211e-60 0)
(-7.00255e-57 1.12455e-56 0)
(-6.45901e-56 2.56677e-55 0)
(-1.21835e-54 2.34746e-54 0)
(-1.09556e-54 4.43272e-53 0)
(2.45773e-54 4.19797e-53 0)
(3.61178e-54 -4.45846e-53 0)
(8.32752e-61 -8.86769e-53 0)
(-3.61175e-54 -4.45846e-53 0)
(-2.4573e-54 4.19788e-53 0)
(1.10576e-54 4.43112e-53 0)
(1.30007e-54 1.88916e-54 0)
(-1.78506e-40 6.36633e-40 0)
(-8.53617e-42 2.00823e-41 0)
(-2.78359e-43 8.10773e-43 0)
(-1.11158e-44 2.42268e-44 0)
(-3.37605e-46 8.5055e-46 0)
(-1.16766e-47 2.38853e-47 0)
(-3.30411e-49 7.44546e-49 0)
(-1.01316e-50 1.96179e-50 0)
(-2.67289e-52 5.51367e-52 0)
(-7.38249e-54 1.36288e-53 0)
(-1.81681e-55 3.49293e-55 0)
(-4.56924e-57 8.10621e-57 0)
(-1.05305e-58 1.91832e-58 0)
(-9.58705e-60 2.23162e-59 0)
(-1.62684e-58 2.90807e-58 0)
(-1.51942e-57 6.63124e-57 0)
(-2.83542e-56 6.13422e-56 0)
(-2.42502e-56 1.15706e-54 0)
(8.43375e-56 1.0471e-54 0)
(8.02267e-56 -2.26548e-54 0)
(-1.1027e-55 -2.2105e-54 0)
(-1.1027e-55 2.2105e-54 0)
(8.02267e-56 2.26548e-54 0)
(8.43375e-56 -1.0471e-54 0)
(-2.42502e-56 -1.15706e-54 0)
(-2.83542e-56 -6.13422e-56 0)
(-1.51944e-57 -6.6312e-57 0)
(-1.63076e-58 -2.90024e-58 0)
(-1.43549e-59 3.05794e-62 0)
(-1.63501e-58 2.90684e-58 0)
(-1.52616e-57 6.64865e-57 0)
(-2.85097e-56 6.16147e-56 0)
(-2.56065e-56 1.1634e-54 0)
(5.75103e-56 1.10179e-54 0)
(8.45006e-56 -1.17007e-54 0)
(1.99495e-62 -2.32739e-54 0)
(-8.45001e-56 -1.17007e-54 0)
(-5.75002e-56 1.10177e-54 0)
(2.58473e-56 1.16298e-54 0)
(3.04746e-56 4.9771e-56 0)
(-8.5094e-39 7.5615e-40 0)
(-4.08321e-40 2.36792e-41 0)
(-1.29362e-41 9.52052e-43 0)
(-5.21359e-43 2.83586e-44 0)
(-1.5567e-44 9.92668e-46 0)
(-5.4488e-46 2.77962e-47 0)
(-1.52806e-47 8.63962e-49 0)
(-4.74885e-49 2.26989e-50 0)
(-1.2491e-50 6.36102e-52 0)
(-3.49998e-52 1.56734e-53 0)
(-8.63139e-54 4.00407e-55 0)
(-2.20484e-55 9.25338e-57 0)
(-5.09867e-57 2.17285e-58 0)
(-1.19874e-58 5.13166e-60 0)
(-6.44124e-60 6.92573e-60 0)
(-3.6509e-59 1.54844e-58 0)
(-6.80192e-58 1.4495e-57 0)
(-5.81571e-58 2.70771e-56 0)
(2.0229e-57 2.4475e-56 0)
(1.92412e-57 -5.30011e-56 0)
(-2.64477e-57 -5.17e-56 0)
(-2.64477e-57 5.17e-56 0)
(1.92412e-57 5.30011e-56 0)
(2.0229e-57 -2.4475e-56 0)
(-5.81571e-58 -2.70771e-56 0)
(-6.80191e-58 -1.4495e-57 0)
(-3.6453e-59 -1.54841e-58 0)
(-3.85493e-60 -6.80738e-60 0)
(-3.38559e-61 7.01658e-64 0)
(-3.8648e-60 6.82271e-60 0)
(-3.66118e-59 1.55246e-58 0)
(-6.83866e-58 1.4559e-57 0)
(-6.14168e-58 2.72251e-56 0)
(1.37934e-57 2.57692e-56 0)
(2.02675e-57 -2.73808e-56 0)
(4.75733e-64 -5.44639e-56 0)
(-2.02674e-57 -2.73808e-56 0)
(-1.37909e-57 2.57686e-56 0)
(6.19926e-58 2.72151e-56 0)
(7.31953e-58 1.18009e-57 0)
(-1.65423e-38 -2.71557e-40 0)
(-7.93948e-40 -1.08248e-41 0)
(-2.50975e-41 -4.6002e-43 0)
(-1.01168e-42 -1.38545e-44 0)
(-3.01559e-44 -4.85818e-46 0)
(-1.05566e-45 -1.36295e-47 0)
(-2.95656e-47 -4.23564e-49 0)
(-9.18895e-49 -1.11417e-50 0)
(-2.41443e-50 -3.12173e-52 0)
(-6.76542e-52 -7.69887e-54 0)
(-1.66702e-53 -1.96654e-55 0)
(-4.25821e-55 -4.54773e-57 0)
(-9.8403e-57 -1.06767e-58 0)
(-2.31018e-58 -2.30623e-60 0)
(-5.09197e-60 1.10655e-61 0)
(-9.13563e-61 3.65943e-60 0)
(-1.49058e-59 3.47739e-59 0)
(-1.27228e-59 6.49528e-58 0)
(4.43146e-59 5.86999e-58 0)
(4.21303e-59 -1.27129e-57 0)
(-5.79261e-59 -1.24003e-57 0)
(-5.79261e-59 1.24003e-57 0)
(4.21303e-59 1.27129e-57 0)
(4.43146e-59 -5.86999e-58 0)
(-1.27227e-59 -6.49528e-58 0)
(-1.49036e-59 -3.4774e-59 0)
(-8.04853e-61 -3.66043e-60 0)
(-8.39178e-62 -1.60562e-61 0)
(-7.3937e-63 1.59877e-65 0)
(-8.41304e-62 1.60917e-61 0)
(-8.08324e-61 3.66984e-60 0)
(-1.49836e-59 3.49251e-59 0)
(-1.34436e-59 6.53028e-58 0)
(3.02198e-59 6.18102e-58 0)
(4.43985e-59 -6.56707e-58 0)
(1.04941e-65 -1.30638e-57 0)
(-4.43982e-59 -6.56708e-58 0)
(-3.02144e-59 6.18089e-58 0)
(1.357e-59 6.52789e-58 0)
(1.60613e-59 2.8421e-59 0)
(-5.29269e-40 -1.33202e-39 0)
(-2.54045e-41 -4.63447e-41 0)
(-8.0243e-43 -1.91339e-42 0)
(-3.23479e-44 -5.72532e-44 0)
(-9.63633e-46 -2.00582e-45 0)
(-3.37351e-47 -5.61809e-47 0)
(-9.44357e-49 -1.74601e-48 0)
(-2.93511e-50 -4.58747e-50 0)
(-7.70914e-52 -1.28536e-51 0)
(-2.16015e-53 -3.16703e-53 0)
(-5.32103e-55 -8.0894e-55 0)
(-1.35917e-56 -1.8693e-56 0)
(-3.14009e-58 -4.38827e-58 0)
(-7.37163e-60 -9.51297e-60 0)
(-1.61597e-61 -2.02987e-61 0)
(-2.12498e-62 7.54854e-62 0)
(-3.29268e-61 7.67684e-61 0)
(-2.80935e-61 1.42317e-59 0)
(9.78697e-61 1.28489e-59 0)
(9.30358e-61 -2.78481e-59 0)
(-1.27924e-60 -2.71567e-59 0)
(-1.27924e-60 2.71567e-59 0)
(9.30358e-61 2.78481e-59 0)
(9.78697e-61 -1.28489e-59 0)
(-2.80934e-61 -1.42317e-59 0)
(-3.29198e-61 -7.67768e-61 0)
(-1.77818e-62 -7.96863e-62 0)
(-1.82428e-63 -3.50652e-63 0)
(-1.60333e-64 2.2702e-67 0)
(-1.82882e-63 3.51427e-63 0)
(-1.78571e-62 7.98889e-62 0)
(-3.30937e-61 7.71072e-61 0)
(-2.96891e-61 1.43078e-59 0)
(6.67366e-61 1.35368e-59 0)
(9.80521e-61 -1.43879e-59 0)
(2.30618e-67 -2.86227e-59 0)
(-9.80515e-61 -1.43879e-59 0)
(-6.67247e-61 1.35365e-59 0)
(2.99662e-61 1.43026e-59 0)
(3.55137e-61 6.29891e-61 0)
(1.65217e-38 -3.39744e-40 0)
(7.92966e-40 -1.31078e-41 0)
(2.50654e-41 -5.53421e-43 0)
(1.01038e-42 -1.66444e-44 0)
(3.01163e-44 -5.8353e-46 0)
(1.05428e-45 -1.63654e-47 0)
(2.9526e-47 -5.08585e-49 0)
(9.17666e-49 -1.3375e-50 0)
(2.41115e-50 -3.74738e-52 0)
(6.75621e-52 -9.23999e-54 0)
(1.66472e-53 -2.36011e-55 0)
(4.25233e-55 -5.45694e-57 0)
(9.82654e-57 -1.28107e-58 0)
(2.30691e-58 -2.77849e-60 0)
(5.00115e-60 -6.02391e-62 0)
(1.08196e-61 5.04738e-64 0)
(-4.54864e-63 1.69365e-62 0)
(-5.71451e-63 3.14338e-61 0)
(2.00865e-62 2.83738e-61 0)
(1.90858e-62 -6.15033e-61 0)
(-2.6249e-62 -5.99732e-61 0)
(-2.62489e-62 5.99732e-61 0)
(1.90858e-62 6.15039e-61 0)
(2.00856e-62 -2.83737e-61 0)
(-5.75907e-63 -3.14339e-61 0)
(-6.75744e-63 -1.69617e-62 0)
(-3.67093e-64 -1.73224e-63 0)
(-3.72016e-65 -7.01659e-65 0)
(-3.38828e-66 -5.88239e-66 0)
(-3.70534e-65 7.59198e-65 0)
(-3.68743e-64 1.73665e-63 0)
(-6.79278e-63 1.70333e-62 0)
(-6.08918e-63 3.15995e-61 0)
(1.36972e-62 2.98962e-61 0)
(2.01228e-62 -3.17737e-61 0)
(1.40599e-67 -6.32143e-61 0)
(-2.01226e-62 -3.1773e-61 0)
(-1.36949e-62 2.98955e-61 0)
(6.14574e-63 3.15879e-61 0)
(7.29932e-63 1.39667e-62 0)
(9.06118e-39 7.44469e-40 0)
(4.34831e-40 2.32898e-41 0)
(1.37749e-41 9.36257e-43 0)
(5.5518e-43 2.78727e-44 0)
(1.65756e-44 9.75588e-46 0)
(5.80186e-46 2.73057e-47 0)
(1.62695e-47 8.48645e-49 0)
(5.05614e-49 2.22879e-50 0)
(1.32983e-50 6.24523e-52 0)
(3.72611e-52 1.53829e-53 0)
(9.18846e-54 3.92938e-55 0)
(2.34707e-55 9.07788e-57 0)
(5.42722e-57 2.13116e-58 0)
(1.27414e-58 4.61926e-60 0)
(2.76366e-60 1.00275e-61 0)
(5.99877e-62 2.07404e-63 0)
(1.08283e-63 3.7249e-64 0)
(-9.22099e-65 6.44433e-63 0)
(4.11695e-64 5.84748e-63 0)
(3.8971e-64 -1.26017e-62 0)
(-5.3689e-64 -1.23028e-62 0)