/*--------------------------------*- C++ -*----------------------------------*\
| =========                 |                                                 |
| \\      /  F ield         | OpenFOAM: The Open Source CFD Toolbox           |
|  \\    /   O peration     | Version:  2.4.0                                 |
|   \\  /    A nd           | Web:      www.OpenFOAM.org                      |
|    \\/     M anipulation  |                                                 |
\*---------------------------------------------------------------------------*/
FoamFile
{
    version     2.0;
    format      ascii;
    class       surfaceScalarField;
    location    "0.3";
    object      phi;
}
// * * * * * * * * * * * * * * * * * * * * * * * * * * * * * * * * * * * * * //

dimensions      [0 3 -1 0 0 0 0];

internalField   nonuniform List<scalar> 
3742
(
-8.16018e-38
9.28864e-38
-8.79034e-39
5.95984e-39
-6.05069e-40
4.9539e-40
-4.96717e-41
2.95758e-41
-3.10677e-42
2.02281e-42
-2.12143e-43
1.12132e-43
-1.2116e-44
6.65528e-45
-7.20106e-46
3.42258e-46
-3.77874e-47
1.8141e-47
-2.00812e-48
8.67415e-49
-9.74087e-50
4.18106e-50
-4.70999e-51
1.86509e-51
-2.1217e-52
8.27725e-53
-4.75022e-54
3.44967e-54
1.12802e-52
-3.88034e-56
2.57439e-51
-4.23433e-54
5.78447e-50
-9.85287e-53
1.21213e-48
-2.16339e-51
2.53376e-47
-4.74995e-50
4.84004e-46
-9.70368e-49
9.37015e-45
-2.00168e-47
1.60676e-43
-3.75606e-46
2.86734e-42
-7.23344e-45
4.31245e-41
-1.22446e-43
-2.18894e-42
-5.3632e-35
2.60837e-37
-3.20807e-34
2.42361e-36
-2.58008e-34
3.29397e-35
-1.96855e-32
8.46928e-36
1.29569e-32
-6.47756e-35
6.52353e-33
-1.23832e-35
-6.33602e-33
4.20846e-35
1.02896e-34
1.35522e-36
9.17239e-35
-2.22355e-35
6.81365e-33
-1.25333e-35
3.59715e-34
-3.05481e-36
6.93213e-33
-7.73543e-35
2.59982e-34
-1.21221e-36
6.76053e-33
1.16237e-35
-6.46753e-33
1.17842e-35
6.48774e-33
1.66473e-36
-6.63925e-33
1.09107e-35
-6.93332e-35
6.48714e-39
-1.02242e-34
-1.08108e-35
-1.75881e-35
-7.82663e-37
-1.17625e-36
-9.28864e-38
-1.24718e-37
-5.95984e-39
-8.05475e-39
-4.9539e-40
-6.53141e-40
-2.95758e-41
-3.93161e-41
-2.02281e-42
-2.65807e-42
-1.12132e-43
-1.47987e-43
-6.65528e-45
-8.72249e-45
-3.42258e-46
-4.49455e-46
-1.8141e-47
-2.37143e-47
-8.67415e-49
-1.1347e-48
-4.18106e-50
-5.45205e-50
-1.86509e-51
-2.43208e-51
-8.27765e-53
-1.07378e-52
-3.53332e-54
3.39858e-54
-1.72689e-54
1.90985e-52
-3.04103e-53
4.44406e-51
-5.85685e-52
9.63622e-50
-1.01922e-50
2.03606e-48
-1.82522e-49
3.94965e-47
-2.87211e-48
7.59939e-46
-4.84934e-47
1.30602e-44
-6.99585e-46
2.28356e-43
-1.14921e-44
3.40971e-42
-1.58263e-43
-2.613e-42
-3.29013e-36
3.74858e-37
-1.92413e-35
2.60491e-36
-2.24518e-34
3.48849e-35
-2.77146e-34
8.94292e-36
1.28261e-34
-6.85706e-35
2.06193e-34
-1.31248e-35
-5.5614e-35
4.45387e-35
-6.34396e-35
1.44789e-36
7.52824e-35
-2.35436e-35
1.54145e-34
-1.32463e-35
1.6116e-34
-2.14824e-36
1.60922e-34
-1.63798e-36
1.54856e-34
-1.78703e-37
8.10775e-35
1.23523e-35
6.22555e-36
1.2486e-35
-4.96794e-36
1.77925e-36
-7.37772e-35
1.15513e-35
-7.38588e-35
6.975e-39
-6.13531e-36
-1.14444e-35
-1.07702e-36
-8.36416e-37
-8.16018e-38
-9.9396e-38
-8.79034e-39
-6.40759e-39
-6.05069e-40
-5.3304e-40
-4.96717e-41
-3.19161e-41
-3.10677e-42
-2.18436e-42
-2.12143e-43
-1.21328e-43
-1.2116e-44
-7.20543e-45
-7.20106e-46
-3.7109e-46
-3.77874e-47
-1.96798e-47
-2.00812e-48
-9.42038e-49
-9.74087e-50
-4.54298e-50
-4.71e-51
-2.02832e-51
-2.12475e-52
-9.01132e-53
-1.15569e-53
-4.91987e-54
-3.90367e-53
-2.37895e-53
-6.26985e-52
-4.40821e-52
-1.02375e-50
-8.24406e-51
-1.37808e-49
-1.35742e-49
-1.91398e-48
-2.29414e-48
-1.85308e-47
-3.2125e-47
-1.8596e-46
-4.81956e-46
-2.37028e-46
-5.33929e-45
1.35519e-44
-6.88732e-44
4.54278e-43
-5.01644e-43
-5.12089e-42
-3.63979e-37
8.06195e-37
-9.24755e-37
3.93189e-37
-6.31057e-36
2.32184e-36
-7.6568e-36
5.37913e-37
3.31787e-36
-4.2136e-36
5.50537e-36
-8.23771e-37
-1.32155e-36
2.72521e-36
-1.43579e-36
1.02821e-37
2.26408e-36
-1.45398e-36
4.68419e-36
-8.34637e-37
5.02352e-36
-1.56845e-37
4.70409e-36
-1.11363e-36
4.43141e-36
-1.53647e-38
2.4732e-36
7.66926e-37
2.77866e-37
7.78524e-37
-1.5735e-37
1.27465e-37
-2.10381e-36
7.11619e-37
-2.11254e-36
5.52753e-40
-2.69368e-37
-7.03682e-37
-1.02268e-37
-5.97906e-38
-8.73758e-39
-7.33938e-39
-1.10393e-39
-5.06984e-40
-7.97949e-41
-4.29331e-41
-6.94653e-42
-2.67602e-42
-4.44601e-43
-1.85356e-43
-3.11593e-44
-1.05668e-44
-1.79921e-45
-6.33148e-46
-1.08195e-46
-3.32e-47
-5.70205e-48
-1.77301e-48
-3.04313e-49
-8.59842e-50
-1.47647e-50
-4.17021e-51
-7.13903e-52
-1.88045e-52
-3.3833e-53
-9.03638e-54
-3.37013e-53
-1.37397e-53
-5.98774e-52
-2.73531e-52
-9.87219e-51
-5.10659e-51
-1.64599e-49
-9.56574e-50
-2.31104e-48
-1.58263e-48
-3.38805e-47
-2.6879e-47
-3.77654e-46
-3.80604e-46
-4.67093e-45
-5.76431e-45
-3.46588e-44
-6.52946e-44
-3.22189e-43
-8.5409e-43
-5.758e-43
-6.45525e-42
-6.56931e-41
-1.8422e-36
1.32148e-36
-1.2253e-36
8.42856e-37
-2.31987e-37
4.12423e-37
-1.67369e-37
6.77264e-38
5.48112e-38
-4.41168e-37
9.93456e-38
-8.66601e-38
-1.79215e-38
2.85655e-37
-1.40485e-38
1.07522e-38
5.25874e-38
-1.52672e-37
1.09405e-37
-8.87778e-38
1.21792e-37
-2.07159e-38
1.02114e-37
-1.66481e-37
9.26406e-38
-5.31801e-39
5.78722e-38
7.99625e-38
9.57664e-39
8.20381e-38
-3.25586e-39
1.37173e-38
-4.37772e-38
7.4854e-38
-4.42759e-38
6.89401e-41
-9.11269e-39
-7.38998e-38
-5.29874e-39
-6.38735e-39
-4.99303e-40
-8.79566e-40
-6.61564e-41
-6.29595e-41
-5.01646e-42
-5.62146e-42
-4.45081e-43
-3.57846e-43
-2.93081e-44
-2.53975e-44
-2.07654e-45
-1.4635e-45
-1.22149e-46
-8.86724e-47
-7.3995e-48
-4.67135e-48
-3.94975e-49
-2.50533e-49
-2.11917e-50
-1.21602e-50
-1.03761e-51
-5.89932e-52
-5.17738e-53
-2.69592e-53
-3.11818e-53
-1.02413e-53
-5.41438e-52
-1.87665e-52
-1.0122e-50
-3.8653e-51
-1.67726e-49
-7.25487e-50
-2.82992e-48
-1.3752e-48
-4.00402e-47
-2.29268e-47
-5.97618e-46
-3.9621e-46
-6.74665e-45
-5.67622e-45
-8.5814e-44
-8.82842e-44
-6.52571e-43
-1.01997e-42
-6.36624e-42
-1.39231e-41
-1.30104e-41
-1.09122e-40
-1.18617e-39
-8.97854e-35
4.62276e-35
-2.2087e-36
1.2108e-36
-1.65342e-36
-9.53904e-38
-2.60099e-37
-7.58022e-39
-1.90968e-38
-2.57027e-38
-2.93891e-39
-4.91866e-39
7.83846e-40
1.56812e-38
1.69743e-39
6.29108e-40
9.468e-40
-8.42853e-39
2.21763e-39
-4.96992e-39
2.85295e-39
-1.3077e-39
7.74393e-40
-9.63604e-39
2.97761e-40
-3.92683e-40
1.01635e-39
4.41275e-39
4.54737e-40
4.55413e-39
1.37755e-41
8.12177e-40
-2.52348e-40
4.1297e-39
-2.90776e-40
4.4282e-42
-4.23384e-40
-4.07103e-39
-3.94169e-40
-3.77186e-40
-3.85046e-41
-5.38856e-41
-5.42402e-42
-4.0373e-42
-4.19595e-43
-3.67325e-43
-3.82087e-44
-2.40566e-44
-2.54402e-45
-1.72601e-45
-1.82428e-46
-1.0131e-46
-1.07887e-47
-6.18174e-48
-6.56758e-49
-3.29748e-49
-3.51129e-50
-1.77716e-50
-1.88539e-51
-8.70084e-52
-9.29867e-53
-4.24855e-53
-2.04327e-53
-4.83713e-54
-3.26456e-52
-6.48812e-53
-6.1169e-51
-1.34304e-51
-1.14544e-49
-2.76899e-50
-1.9078e-48
-5.22326e-49
-3.23538e-47
-9.94291e-48
-4.63361e-46
-1.67759e-46
-6.98997e-45
-2.92773e-45
-8.0946e-44
-4.30048e-44
-1.05002e-42
-6.8199e-43
-8.44993e-42
-8.30032e-42
-8.56352e-41
-1.17218e-40
-2.27475e-40
-1.02229e-39
-1.13882e-38
-1.72875e-36
2.8968e-36
-1.30027e-36
2.48404e-36
-1.12859e-37
-7.01787e-38
-1.7617e-38
-9.86299e-39
-1.47582e-39
-3.2324e-39
-2.96996e-40
-4.58554e-40
6.22192e-41
1.17033e-39
1.1887e-40
4.67309e-41
1.30682e-41
-6.33778e-40
4.21597e-41
-3.77921e-40
7.00266e-41
-1.16992e-40
-4.45478e-41
-9.20644e-40
-6.60128e-41
-4.68793e-41
1.10916e-41
3.28821e-40
1.96687e-41
3.42938e-40
4.20095e-42
6.18619e-41
2.35565e-41
3.10771e-40
2.15104e-41
3.6163e-43
-1.80996e-41
-3.06064e-40
-2.00144e-41
-2.86244e-41
-2.0512e-42
-4.31614e-42
-2.95478e-43
-3.29036e-43
-2.35359e-44
-3.07083e-44
-2.16818e-45
-2.03334e-45
-1.47102e-46
-1.47634e-46
-1.06229e-47
-8.71472e-48
-6.36092e-49
-5.34384e-49
-3.88968e-50
-2.85622e-50
-2.09693e-51
-1.5408e-51
-1.1341e-52
-7.5453e-53
-1.65167e-53
-5.06765e-54
-2.28052e-52
-3.19092e-53
-4.69559e-51
-7.11234e-52
-8.85391e-50
-1.4836e-50
-1.67827e-48
-3.09664e-49
-2.81739e-47
-5.88802e-48
-4.86248e-46
-1.13973e-46
-7.04565e-45
-1.94295e-45
-1.09161e-43
-3.47255e-44
-1.28942e-42
-5.17342e-43
-1.74924e-41
-8.50782e-42
-1.47356e-40
-1.05754e-40
-1.63883e-39
-1.58936e-39
-5.74465e-39
-1.43849e-38
-1.83602e-37
2.26781e-38
1.39038e-34
-1.21127e-37
3.18228e-36
-1.11339e-38
1.17085e-37
-2.33811e-39
3.31236e-39
-1.98346e-40
-2.83944e-41
-3.35114e-41
-1.81452e-41
3.58254e-42
6.07112e-41
8.13105e-42
2.52545e-42
5.71604e-44
-3.27865e-41
1.67302e-42
-1.97734e-41
3.25663e-42
-6.75614e-42
-5.37789e-42
-5.13133e-41
-6.70845e-42
-2.96649e-42
-3.19571e-43
1.69522e-41
1.13534e-42
1.7798e-41
3.45378e-43
3.33616e-42
2.32082e-42
1.60697e-41
2.19153e-42
2.04794e-44
-1.04955e-42
-1.58104e-41
-1.25103e-42
-1.54138e-42
-1.29725e-43
-2.37238e-43
-1.91527e-44
-1.86156e-44
-1.54055e-45
-1.7571e-45
-1.43603e-46
-1.18556e-46
-9.7994e-48
-8.66599e-48
-7.11267e-49
-5.179e-49
-4.26958e-50
-3.189e-50
-2.61395e-51
-1.71838e-51
-1.41064e-52
-9.29367e-53
-1.08805e-53
-4.63781e-54
-7.36683e-53
-1.81713e-54
-1.52367e-51
-3.64379e-53
-3.14141e-50
-8.16749e-52
-5.95319e-49
-1.72578e-50
-1.13288e-47
-3.59612e-49
-1.92581e-46
-6.96056e-48
-3.35735e-45
-1.33938e-46
-4.99559e-44
-2.34315e-45
-7.90665e-43
-4.13111e-44
-9.89006e-42
-6.40487e-43
-1.40534e-40
-1.02451e-41
-1.36981e-39
-1.36208e-40
-1.72001e-38
-1.94137e-39
-1.09068e-37
-2.02286e-38
-2.32154e-37
-4.17937e-37
-4.43706e-35
3.48894e-37
9.20754e-37
2.06623e-38
2.17044e-37
1.53178e-39
1.51643e-38
4.88757e-41
1.63357e-39
-2.11473e-42
1.05331e-40
-1.1522e-43
1.23986e-41
3.56605e-43
6.77582e-43
-6.05109e-45
-1.99453e-42
7.95936e-44
-1.23455e-42
1.51894e-43
-4.78047e-43
-2.94383e-43
-3.76782e-42
-3.59305e-43
-2.40799e-43
-2.82157e-44
1.03933e-42
5.30996e-44
1.10226e-42
1.79435e-44
2.08312e-43
1.20594e-43
9.95011e-43
1.14209e-43
1.32281e-45
-4.92213e-44
-9.78422e-43
-6.00813e-44
-9.60906e-44
-6.40993e-45
-1.51657e-44
-9.56414e-46
-1.20142e-45
-7.84027e-47
-1.14762e-46
-7.35391e-48
-7.79026e-48
-5.08112e-49
-5.72367e-49
-3.70158e-50
-3.43022e-50
-2.23992e-51
-2.11486e-51
-1.3748e-52
-1.13997e-52
-9.12311e-54
-6.16213e-54
-3.84676e-53
-4.03859e-55
-8.53773e-52
-2.48846e-54
-1.78706e-50
-6.08701e-53
-3.73252e-49
-1.37403e-51
-7.13054e-48
-3.17869e-50
-1.3802e-46
-6.57138e-49
-2.36895e-45
-1.42685e-47
-4.22796e-44
-2.663e-46
-6.36687e-43
-5.4239e-45
-1.04337e-41
-8.95088e-44
-1.32564e-40
-1.71538e-42
-1.99487e-39
-2.43168e-41
-1.98637e-38
-4.45672e-40
-2.79079e-37
-5.27049e-39
-1.82181e-36
-9.58132e-38
-8.61898e-37
-2.31602e-36
1.04861e-36
-1.01109e-36
-3.88211e-37
-9.54659e-38
1.60125e-37
-1.59622e-38
1.30283e-38
-1.27283e-39
1.52318e-39
-1.34817e-40
9.99674e-41
-9.48449e-42
8.33008e-42
-7.51057e-43
4.98155e-43
-4.89735e-44
-6.49387e-44
2.65461e-45
-5.84915e-44
9.4712e-45
-2.52784e-44
-1.80076e-44
-1.96635e-43
-2.16669e-44
-1.3586e-44
-1.89883e-45
4.99398e-44
2.81761e-45
5.33469e-44
9.87187e-46
1.03432e-44
6.65819e-45
4.80471e-44
6.31113e-45
6.76234e-47
-2.64092e-45
-4.72142e-44
-3.24519e-45
-4.76801e-45
-3.48661e-46
-7.60245e-46
-5.25948e-47
-6.13925e-47
-4.33629e-48
-5.8986e-48
-4.08728e-49
-4.0547e-49
-2.83285e-50
-2.98899e-50
-2.06635e-51
-1.80577e-51
-1.25139e-52
-1.11523e-52
-7.6912e-54
-6.04114e-54
-9.52081e-55
-3.2858e-55
-1.25993e-53
-7.15332e-56
-2.81613e-52
-1.36724e-54
-6.14503e-51
-3.47125e-53
-1.2701e-49
-7.88234e-52
-2.56699e-48
-1.88688e-50
-4.84462e-47
-3.90676e-49
-9.00474e-46
-8.81167e-48
-1.5277e-44
-1.64039e-46
-2.58912e-43
-3.50163e-45
-3.85405e-42
-5.81481e-44
-5.89131e-41
-1.22242e-42
-7.36148e-40
-1.99907e-41
-9.92226e-39
-4.98337e-40
-9.13768e-38
-1.09164e-38
-9.56723e-37
-3.0102e-37
-5.93581e-36
-9.97323e-35
-1.24867e-36
-2.40731e-36
-2.51085e-37
-1.83228e-36
-1.82012e-37
-2.88412e-37
-1.35683e-38
-1.99902e-38
-1.52468e-39
-2.04385e-39
-9.9444e-41
-1.34059e-40
-8.08089e-42
-1.06689e-41
-4.86593e-43
-6.46877e-43
-3.81758e-44
-4.29479e-44
-5.09533e-45
-1.94013e-45
-1.62506e-45
-1.00029e-45
-1.2027e-44
-1.03644e-45
-8.79988e-46
-9.50563e-47
2.64921e-45
1.25043e-46
2.85808e-45
4.52683e-47
5.5777e-46
3.0068e-46
2.57422e-45
2.84791e-46
3.70977e-48
-1.17974e-46
-2.5288e-45
-1.4579e-46
-2.56977e-46
-1.59722e-47
-4.14499e-47
-2.42084e-48
-3.36731e-48
-2.02181e-49
-3.25138e-49
-1.91071e-50
-2.24269e-50
-1.33522e-51
-1.65535e-51
-9.75059e-53
-1.00115e-52
-5.94133e-54
-6.17692e-54
-5.4728e-55
-3.33626e-55
-4.48117e-54
4.01472e-58
-1.06853e-52
4.68302e-55
-2.41349e-51
1.13756e-53
-5.41046e-50
2.7208e-52
-1.12629e-48
6.12827e-51
-2.35418e-47
1.37209e-49
-4.46367e-46
2.84546e-48
-8.66538e-45
5.93966e-47
-1.47119e-43
1.11835e-45
-2.64399e-42
2.15542e-44
-3.91432e-41
3.52461e-43
-6.504e-40
5.71279e-42
-8.00101e-39
4.71016e-41
-1.22583e-37
-8.05178e-40
-1.08618e-36
-8.16111e-38
-1.44007e-35
-3.17578e-36
-9.04408e-35
-2.22523e-36
-1.28581e-36
-1.11023e-36
-9.35717e-37
-1.02436e-37
-2.17329e-37
-1.68313e-38
-1.5191e-38
-1.32781e-39
-1.6457e-39
-1.39434e-40
-1.07058e-40
-9.77335e-42
-8.69749e-42
-7.91977e-43
-5.24812e-43
-4.99789e-44
-3.57409e-44
-3.36849e-45
-2.12805e-45
-1.67789e-46
-1.91052e-46
-5.65148e-47
-5.89488e-46
-5.41828e-47
-4.53382e-47
-5.07031e-48
1.18496e-46
5.91893e-48
1.28849e-46
2.17866e-48
2.56092e-47
1.4446e-47
1.15889e-46
1.36802e-47
1.73314e-49
-5.65199e-48
-1.13793e-46
-6.99472e-48
-1.17973e-47
-7.70427e-49
-1.91089e-48
-1.17269e-49
-1.5731e-49
-9.82979e-51
-1.52226e-50
-9.29924e-52
-1.05885e-51
-6.50814e-53
-7.82182e-53
-4.74762e-54
-4.75423e-54
-2.88034e-55
-2.93243e-55
2.7413e-57
-1.52636e-56
4.92716e-55
1.60181e-56
1.17438e-53
4.30022e-55
2.64041e-52
1.04321e-53
5.86956e-51
2.49781e-52
1.21548e-49
5.62852e-51
2.5133e-48
1.2618e-49
4.73665e-47
2.61776e-48
9.0636e-46
5.47297e-47
1.52784e-44
1.03084e-45
2.69075e-43
1.99117e-44
3.94897e-42
3.25957e-43
6.3642e-41
5.31555e-42
7.74032e-40
4.4868e-41
1.12573e-38
-6.87988e-40
9.78518e-38
-7.37927e-38
1.15636e-36
-2.90021e-36
-8.35393e-35
-1.57501e-37
-5.14418e-35
6.70964e-38
-1.4291e-36
1.45474e-39
-6.3834e-38
-8.14757e-40
-2.48945e-39
-9.52145e-41
-1.48018e-40
-1.34595e-41
-8.61747e-42
-1.05391e-42
-6.72725e-43
-9.43877e-44
-4.19082e-44
-6.25639e-45
-2.89011e-45
-4.4291e-46
-1.72472e-46
-2.48909e-47
-1.37728e-47
-3.58153e-48
-3.15334e-47
-2.45738e-48
-2.51269e-48
-2.33518e-49
5.59577e-48
2.4552e-49
6.14568e-48
9.26109e-50
1.22823e-48
6.07148e-49
5.52855e-48
5.74542e-49
8.38102e-51
-2.36558e-49
-5.42758e-48
-2.93778e-49
-5.6581e-49
-3.28198e-50
-9.20488e-50
-5.00151e-51
-7.60852e-51
-4.23002e-52
-7.36957e-52
-4.00218e-53
-5.13556e-53
-2.81574e-54
-3.7895e-54
-2.0469e-55
-2.30314e-55
2.17203e-57
-1.41967e-56
3.73921e-55
-1.43976e-57
9.10541e-54
-1.74724e-56
2.18122e-52
-4.4427e-55
4.92685e-51
-1.07769e-53
1.10471e-49
-2.58058e-52
2.29952e-48
-5.8151e-51
4.80744e-47
-1.30377e-49
9.11369e-46
-2.7048e-48
1.76958e-44
-5.6556e-47
3.00337e-43
-1.06515e-45
5.39836e-42
-2.05731e-44
7.98745e-41
-3.36442e-43
1.32725e-39
-5.46823e-42
1.63117e-38
-4.49125e-41
2.49875e-37
7.81699e-40
2.21069e-36
7.92074e-38
2.92982e-35
3.09738e-36
8.89663e-35
8.84241e-38
-1.7953e-36
-9.86715e-38
-8.09048e-37
-6.8261e-39
-3.27459e-38
-9.12193e-40
-1.06387e-39
-5.98984e-41
-4.00821e-41
-5.43649e-42
-1.71229e-42
-3.39114e-43
-1.14343e-43
-2.49295e-44
-6.79825e-45
-1.45173e-45
-4.62151e-46
-9.16364e-47
-2.65828e-47
-4.89411e-48
-1.74043e-48
-3.71299e-49
-1.48169e-48
-1.24691e-49
-1.20896e-49
-1.15517e-50
2.33272e-49
1.0502e-50
2.58492e-49
4.02931e-51
5.23726e-50
2.63866e-50
2.32346e-49
2.49646e-50
3.60898e-52
-1.02681e-50
-2.28035e-49
-1.27655e-50
-2.4132e-50
-1.43233e-51
-3.92763e-51
-2.18368e-52
-3.2771e-52
-1.85121e-53
-3.17309e-53
-1.74909e-54
-2.22338e-54
-1.23109e-55
-1.63889e-55
-8.93103e-57
-9.98905e-57
-3.1649e-59
-6.39397e-58
1.29481e-56
-7.31819e-58
3.134e-55
-1.8118e-56
7.42486e-54
-4.61538e-55
1.66493e-52
-1.11926e-53
3.68197e-51
-2.67882e-52
7.60181e-50
-6.03463e-51
1.56128e-48
-1.35217e-49
2.93224e-47
-2.80428e-48
5.55948e-46
-5.85906e-47
9.33311e-45
-1.10299e-45
1.62201e-43
-2.12772e-44
2.36841e-42
-3.47441e-43
3.73813e-41
-5.61745e-42
4.515e-40
-4.48265e-41
6.32046e-39
8.75925e-40
5.4218e-38
8.40808e-38
5.79852e-37
3.25505e-36
9.24802e-35
-5.79504e-39
-1.81237e-36
6.28505e-39
-8.47583e-37
4.22683e-40
-3.29768e-38
4.7755e-41
-9.95277e-40
2.75066e-42
-2.67912e-41
2.01018e-43
-7.01462e-43
1.01708e-44
-2.53748e-44
5.63461e-46
-1.11087e-45
2.37493e-47
-6.42627e-47
9.5312e-49
-3.40495e-48
2.77847e-50
-1.98949e-49
-3.83527e-51
-7.60029e-50
-4.64947e-51
-6.17124e-51
-4.64168e-52
9.97771e-51
4.08876e-52
1.11822e-50
1.59869e-52
2.2767e-51
1.03829e-51
1.00546e-50
9.81788e-52
1.57343e-53
-4.02842e-52
-9.86715e-51
-5.0217e-52
-1.04943e-51
-5.69476e-53
-1.70822e-52
-8.67138e-54
-1.42934e-53
-7.39679e-55
-1.38181e-54
-6.97699e-56
-9.68956e-56
-4.93658e-57
-7.12313e-57
-6.39598e-58
-4.33454e-58
-7.3529e-57
-1.96967e-59
-1.86956e-55
1.84093e-58
-4.54327e-54
4.81739e-57
-1.08839e-52
1.22972e-55
-2.45848e-51
2.98619e-54
-5.51293e-50
7.16398e-53
-1.14764e-48
1.61624e-51
-2.39966e-47
3.63215e-50
-4.54977e-46
7.54618e-49
-8.83642e-45
1.58343e-47
-1.50009e-43
2.99418e-46
-2.6974e-42
5.86086e-45
-3.9927e-41
9.99057e-44
-6.63863e-40
1.86765e-42
-8.16441e-39
3.04311e-41
-1.25181e-37
6.39003e-40
-1.10874e-36
1.30348e-38
-1.471e-35
3.26112e-37
6.28091e-36
-9.55615e-38
-5.43426e-35
1.04092e-37
-1.4978e-36
7.0389e-39
-5.49073e-38
8.76744e-40
-1.53037e-39
5.45684e-41
-2.75621e-41
4.62293e-42
-7.25472e-44
2.71533e-43
3.92714e-44
1.87462e-44
2.79901e-45
1.02934e-45
1.84169e-46
6.13909e-47
9.78752e-48
3.13856e-48
5.3828e-49
1.66597e-49
2.35462e-50
7.74713e-51
1.06241e-51
3.63554e-52
4.49778e-52
3.31485e-53
4.42777e-52
7.14035e-54
9.06608e-53
4.14463e-53
3.9547e-52
3.91557e-53
6.28849e-55
-1.60522e-53
-3.88019e-52
-2.003e-53
-4.17537e-53
-2.2798e-54
-6.78232e-54
-3.46437e-55
-5.71321e-55
-2.95945e-56
-5.5113e-56
-2.7832e-57
-3.87775e-57
-1.9737e-58
-2.84355e-58
-3.95065e-59
-1.69847e-59
-6.55191e-58
8.54046e-60
-1.65666e-56
2.59249e-58
-4.00514e-55
6.72121e-57
-9.51184e-54
1.71106e-55
-2.13635e-52
4.14724e-54
-4.73946e-51
9.91777e-53
-9.80389e-50
2.23305e-51
-2.02205e-48
4.99901e-50
-3.80647e-47
1.03636e-48
-7.25934e-46
2.16389e-47
-1.22224e-44
4.07992e-46
-2.14247e-43
7.91816e-45
-3.14042e-42
1.33387e-43
-5.02485e-41
2.40247e-42
-6.10299e-40
3.52572e-41
-8.76134e-39
5.93751e-40
-7.59436e-38
7.36385e-39
-8.67729e-37
1.18528e-37
1.11859e-36
1.01677e-37
-1.20365e-36
-1.10867e-37
-8.00356e-37
-7.60088e-39
-2.9034e-38
-9.55874e-40
-7.61949e-40
-6.0222e-41
-4.03657e-42
-5.15333e-42
8.35544e-43
-3.06275e-43
1.03572e-43
-2.13575e-44
7.01828e-45
-1.18609e-45
4.98707e-46
-7.14368e-47
2.88853e-47
-3.69179e-48
1.73741e-48
-1.98055e-49
9.14689e-50
-9.5381e-51
4.87596e-51
-4.64981e-52
2.52469e-52
-2.02676e-53
2.8953e-53
-6.97082e-55
4.13021e-54
1.49066e-54
1.57477e-53
1.4442e-54
2.60409e-56
-5.91711e-55
-1.54282e-53
-7.39865e-55
-1.66782e-54
-8.49007e-56
-2.70216e-55
-1.28635e-56
-2.28073e-56
-1.10351e-57
-2.19297e-57
-1.03461e-58
-1.54285e-58
-7.30789e-60
-1.12589e-59
-3.79647e-61
-3.36193e-61
3.80924e-60
9.60529e-60
9.85163e-59
2.6076e-58
2.40387e-57
6.76171e-57
5.79364e-56
1.72255e-55
1.3133e-54
4.17704e-54
2.96328e-53
9.99769e-53
6.18335e-52
2.25226e-51
1.30051e-50
5.04762e-50
2.46595e-49
1.0471e-48
4.81049e-48
2.18951e-47
8.12975e-47
4.13143e-46
1.46245e-45
8.03394e-45
2.13458e-44
1.3547e-43
3.51435e-43
2.4469e-42
4.17065e-42
3.59633e-41
6.17435e-41
6.08455e-40
5.01512e-40
7.57349e-39
6.07585e-39
1.22934e-37
1.17005e-36
1.00591e-37
-1.31007e-36
-1.12449e-37
-8.61562e-38
-7.89567e-39
8.94176e-39
-1.06204e-39
1.03947e-39
-7.03407e-41
1.35493e-40
-6.40672e-42
9.73077e-42
-4.01646e-43
8.16855e-43
-2.95855e-44
5.15218e-44
-1.72805e-45
3.54183e-45
-1.09268e-46
2.03023e-46
-5.91514e-48
1.21076e-47
-3.3154e-49
6.36638e-49
-1.66473e-50
3.38961e-50
-8.43889e-52
1.64665e-51
-3.93967e-53
8.03174e-53
-1.8231e-54
3.7287e-54
-2.33369e-56
7.40582e-55
5.00028e-56
7.67779e-57
-2.19927e-56
-5.69194e-55
-2.73576e-56
-6.21297e-56
-3.14879e-57
-1.00284e-56
-4.75292e-58
-8.50482e-58
-4.08029e-59
-8.14898e-59
-3.77757e-60
-5.74372e-60
6.18011e-61
-4.23034e-61
2.38045e-59
-1.65933e-61
6.15167e-58
-3.86483e-60
1.5557e-56
-1.0391e-58
3.75732e-55
-2.68452e-57
8.91565e-54
-6.79773e-56
2.00129e-52
-1.64157e-54
4.43796e-51
-3.89978e-53
9.18058e-50
-8.74399e-52
1.89388e-48
-1.94106e-50
3.56877e-47
-4.00448e-49
6.81375e-46
-8.26707e-48
1.15019e-44
-1.54777e-46
2.02134e-43
-2.94363e-45
2.97885e-42
-4.8185e-44
4.7891e-41
-7.88706e-43
5.87822e-40
-8.11527e-42
8.50113e-39
7.44463e-42
7.50652e-38
5.89523e-39
8.61663e-37
2.26867e-37
5.77313e-36
-1.66993e-37
6.91548e-37
5.65401e-38
-5.13544e-37
-1.00365e-40
2.01937e-37
-1.2154e-39
1.66384e-38
-1.30049e-40
1.9519e-39
-1.75117e-41
1.28792e-40
-1.34772e-42
1.0506e-41
-1.19056e-43
6.34132e-43
-7.83337e-45
4.28736e-44
-5.52161e-46
2.38936e-45
-3.23515e-47
1.40818e-46
-1.95154e-48
7.26127e-48
-1.03728e-49
3.83136e-49
-5.54726e-51
1.83433e-50
-2.70571e-52
8.81496e-52
-1.31004e-53
3.93458e-53
-5.89276e-55
1.7636e-54
-2.44213e-56
7.28042e-56
-1.86292e-57
-1.80058e-56
-9.96661e-58
-2.18388e-57
-1.11982e-58
-3.65256e-58
-1.6632e-59
-3.12334e-59
-1.41517e-60
-2.9893e-60
2.47214e-61
-2.12846e-61
1.04922e-59
-7.6772e-62
2.8436e-58
-1.76027e-60
7.39051e-57
-4.85504e-59
1.88619e-55
-1.31268e-57
4.58624e-54
-3.40464e-56
1.09977e-52
-8.67532e-55
2.48577e-51
-2.10408e-53
5.58113e-50
-5.03699e-52
1.16272e-48
-1.13485e-50
2.43515e-47
-2.54363e-49
4.62129e-46
-5.27645e-48
8.99487e-45
-1.10309e-46
1.52872e-43
-2.07893e-45
2.75717e-42
-4.02609e-44
4.08717e-41
-6.6718e-43
6.82546e-40
-1.13731e-41
8.41127e-39
-1.27909e-40
1.29851e-37
-4.57991e-40
1.1538e-36
7.11522e-38
1.55001e-35
3.16035e-36
9.59552e-35
-2.41687e-36
-5.47089e-35
-1.6044e-36
3.98011e-37
-1.41821e-37
2.23916e-37
-2.25632e-38
1.65172e-38
-1.74263e-39
1.84324e-39
-1.79993e-40
1.20018e-40
-1.24784e-41
9.75266e-42
-1.00228e-42
5.8673e-43
-6.28367e-44
3.96392e-44
-4.2362e-45
2.20505e-45
-2.41994e-46
1.29889e-46
-1.42658e-47
6.6889e-48
-7.48031e-49
3.52771e-49
-3.95317e-50
1.68725e-50
-1.91533e-51
8.10446e-52
-9.22422e-53
3.61421e-53
-4.1534e-54
1.60063e-54
-1.84323e-55
6.67835e-56
-7.78057e-57
2.01815e-57
-3.52816e-58
2.71685e-59
-1.64356e-59
-8.73198e-60
-1.05826e-60
-9.44007e-61
-8.56133e-62
-9.8667e-62
-5.31912e-61
-7.81885e-63
-1.45455e-59
-2.01409e-62
-3.93245e-58
-5.61912e-61
-1.02086e-56
-1.55191e-59
-2.60055e-55
-4.20126e-58
-6.31491e-54
-1.09069e-56
-1.51081e-52
-2.78325e-55
-3.40971e-51
-6.75725e-54
-7.63338e-50
-1.62048e-52
-1.58749e-48
-3.65506e-51
-3.31232e-47
-8.21026e-50
-6.27294e-46
-1.70535e-48
-1.21488e-44
-3.57645e-47
-2.05955e-43
-6.76191e-46
-3.689e-42
-1.32327e-44
-5.45102e-41
-2.25961e-43
-9.01191e-40
-4.24678e-42
-1.10574e-38
-7.06783e-41
-1.67998e-37
-1.54157e-39
-1.48242e-36
-3.36415e-38
-1.93225e-35
-8.80639e-37
-1.80194e-35
-1.19192e-34
1.18162e-34
-3.28428e-36
3.08266e-36
-2.22416e-36
-9.35088e-38
-3.49209e-37
-1.27731e-38
-2.41829e-38
-1.76325e-39
-2.46876e-39
-1.18912e-40
-1.61813e-40
-9.7762e-42
-1.28673e-41
-5.89383e-43
-7.79702e-43
-3.98249e-44
-5.21207e-44
-2.21488e-45
-2.91015e-45
-1.3042e-46
-1.70311e-46
-6.71433e-48
-8.78484e-48
-3.54006e-49
-4.61307e-49
-1.69276e-50
-2.20748e-50
-8.12904e-52
-1.0571e-51
-3.62448e-53
-4.71368e-53
-1.60412e-54
-2.08186e-54
-6.69495e-56
-8.68645e-56
-2.77939e-57
-3.56883e-57
-1.10769e-58
-1.39936e-58
-4.59861e-60
-5.39398e-60
-1.91296e-61
-2.45653e-61
-9.00997e-63
-1.31337e-60
2.92215e-63
-3.609e-59
9.84488e-62
-9.76623e-58
2.81753e-60
-2.53707e-56
7.77566e-59
-6.46993e-55
2.10252e-57
-1.5723e-53
5.45353e-56
-3.76651e-52
1.38973e-54
-8.50773e-51
3.3708e-53
-1.90768e-49
8.07019e-52
-3.97106e-48
1.81835e-50
-8.30245e-47
4.076e-49
-1.57401e-45
8.45511e-48
-3.05646e-44
1.76739e-46
-5.18791e-43
3.32733e-45
-9.32619e-42
6.41752e-44
-1.38009e-40
1.04434e-42
-2.29374e-39
1.66632e-41
-2.8196e-38
1.17549e-40
-4.32062e-37
-3.53487e-39
-3.82395e-36
-2.92025e-37
-5.06991e-35
-1.11671e-35
-3.16074e-34
-2.53647e-36
6.23049e-35
-1.47396e-36
3.17132e-36
-1.32801e-37
-1.01322e-37
-2.14336e-38
-1.37088e-38
-1.67144e-39
-1.8847e-39
-1.73939e-40
-1.27595e-40
-1.21198e-41
-1.04994e-41
-9.77452e-43
-6.34816e-43
-6.14648e-44
-4.29346e-44
-4.15417e-45
-2.39273e-45
-2.3778e-46
-1.41002e-46
-1.40413e-47
-7.27014e-48
-7.37301e-49
-3.83568e-49
-3.90128e-50
-1.83625e-50
-1.89218e-51
-8.82334e-52
-9.12119e-53
-3.93769e-53
-4.1104e-54
-1.74368e-54
-1.82608e-55
-7.28285e-56
-7.6846e-57
-2.99837e-57
-3.17329e-58
-1.17688e-58
-1.25266e-59
-4.54225e-60
-4.83691e-61
-1.68617e-61
-2.57122e-63
-6.12192e-63
4.41635e-61
1.38569e-63
1.2221e-59
4.69541e-62
3.30699e-58
1.3439e-60
8.59055e-57
3.70934e-59
2.19069e-55
1.00317e-57
5.3236e-54
2.60239e-56
1.27531e-52
6.63297e-55
2.88067e-51
1.60905e-53
6.45962e-50
3.85312e-52
1.34471e-48
8.68287e-51
2.81174e-47
1.94679e-49
5.33114e-46
4.03865e-48
1.03541e-44
8.4426e-47
1.7578e-43
1.5881e-45
3.16087e-42
3.0532e-44
4.67904e-41
4.8922e-43
7.78012e-40
7.34453e-42
9.56941e-39
2.14594e-41
1.46728e-37
-3.38309e-39
1.29982e-36
-2.1014e-37
1.72427e-35
-7.75219e-36
-2.1513e-34
-2.90138e-37
4.00617e-36
1.90897e-37
1.89057e-36
9.28393e-39
5.94528e-38
-3.6852e-41
9.56789e-40
-5.5362e-41
-8.92148e-41
-1.11506e-41
-8.87518e-42
-9.69656e-43
-8.0928e-43
-9.28476e-44
-5.18026e-44
-6.38212e-45
-3.57194e-45
-4.6531e-46
-2.04708e-46
-2.78833e-47
-1.21997e-47
-1.71341e-48
-6.4103e-49
-9.23303e-50
-3.4109e-50
-4.99574e-51
-1.65551e-51
-2.45939e-52
-8.00902e-53
-1.20044e-53
-3.61152e-54
-5.45395e-55
-1.6082e-55
-2.43849e-56
-6.77111e-57
-1.02995e-57
-2.80027e-58
-4.26265e-59
-1.10576e-59
-1.68327e-60
-4.278e-61
-6.34148e-62
-1.5922e-62
4.36925e-62
-6.91234e-64
1.32006e-60
-3.36667e-63
3.64787e-59
-9.78736e-62
9.87152e-58
-2.80081e-60
2.56441e-56
-7.73049e-59
6.53983e-55
-2.09072e-57
1.5893e-53
-5.4237e-56
3.80745e-52
-1.38246e-54
8.60053e-51
-3.35373e-53
1.92867e-49
-8.0318e-52
4.01504e-48
-1.81005e-50
8.39567e-47
-4.05907e-49
1.59186e-45
-8.42265e-48
3.09185e-44
-1.76216e-46
5.24896e-43
-3.32376e-45
9.43923e-42
-6.45416e-44
1.39725e-40
-1.07826e-42
2.32348e-39
-1.88965e-41
2.85762e-38
-2.42696e-40
4.38234e-37
-2.5709e-39
3.88176e-36
3.83135e-38
5.15211e-35
2.49817e-36
8.67526e-35
-1.53586e-38
6.34847e-35
1.4212e-38
1.80903e-36
1.01403e-39
6.93018e-38
5.30358e-41
2.03629e-39
4.62098e-43
4.60815e-41
-3.8787e-43
6.30141e-43
-4.35865e-44
-2.87701e-44
-4.78485e-45
-3.26978e-45
-3.53812e-46
-2.79274e-46
-2.70482e-47
-1.76819e-47
-1.68259e-48
-1.13714e-48
-1.05961e-49
-6.28233e-50
-5.84346e-51
-3.48686e-51
-3.21002e-52
-1.74443e-52
-1.60515e-53
-8.6585e-54
-7.91592e-55
-3.97962e-55
-3.63644e-56
-1.80064e-56
-1.63791e-57
-7.6728e-58
-6.97392e-59
-3.20404e-59
-2.90198e-60
-1.27416e-60
-1.15293e-61
-4.95372e-62
-5.02763e-63
-1.84956e-63
-1.65499e-62
-1.06934e-64
-4.69091e-61
-1.19754e-63
-1.29607e-59
-3.49571e-62
-3.50697e-58
-1.00034e-60
-9.10963e-57
-2.76097e-59
-2.32298e-55
-7.46692e-58
-5.64491e-54
-1.93702e-56
-1.35225e-52
-4.93723e-55
-3.05444e-51
-1.19771e-53
-6.8493e-50
-2.86831e-52
-1.42585e-48
-6.46397e-51
-2.98151e-47
-1.44954e-49
-5.65334e-46
-3.00796e-48
-1.09807e-44
-6.2945e-47
-1.8644e-43
-1.18851e-45
-3.35306e-42
-2.31685e-44
-4.96466e-41
-3.93392e-43
-8.25707e-40
-7.2664e-42
-1.01603e-38
-1.15401e-40
-1.55845e-37
-2.31131e-39
-1.38155e-36
-4.39373e-38
-1.83323e-35
-1.06303e-36
-2.0217e-35
-1.01634e-37
4.10577e-36
1.10532e-37
1.11948e-36
7.35101e-39
4.73397e-38
9.09061e-40
1.57686e-39
5.58637e-41
5.84764e-41
4.69256e-42
2.25924e-42
2.72324e-43
1.25445e-43
1.86259e-44
6.43817e-45
1.01075e-45
3.79976e-46
5.96931e-47
1.93672e-47
3.01637e-48
1.0368e-48
1.58664e-49
4.95403e-50
7.47026e-51
2.40787e-51
3.56798e-52
1.07556e-52
1.56921e-53
4.80498e-54
6.89452e-55
2.01151e-55
2.84133e-56
8.33845e-57
1.15902e-57
3.28126e-58
4.48991e-59
1.27102e-59
1.71206e-60
4.71496e-61
6.24751e-62
1.71573e-62
6.39782e-64
6.05254e-64
-4.67921e-62
1.35188e-64
-1.34232e-60
3.46059e-63
-3.70967e-59
1.01202e-61
-1.00407e-57
2.8961e-60
-2.60875e-56
7.99362e-59
-6.65431e-55
2.16188e-57
-1.61738e-53
5.60836e-56
-3.87565e-52
1.42952e-54
-8.75595e-51
3.46786e-53
-1.96408e-49
8.30488e-52
-4.0894e-48
1.87155e-50
-8.55407e-47
4.19667e-49
-1.62215e-45
8.70704e-48
-3.15202e-44
1.82082e-46
-5.3519e-43
3.4286e-45
-9.62973e-42
6.61641e-44
-1.42563e-40
1.07685e-42
-2.37254e-39
1.71891e-41
-2.91822e-38
1.20761e-40
-4.48102e-37
-3.68358e-39
-3.96967e-36
-3.03648e-37
-5.28333e-35
-1.16308e-35
-3.30183e-34
2.61491e-37
4.65781e-36
-2.853e-37
2.90848e-36
-1.97085e-38
1.10997e-37
-2.46912e-39
3.29486e-39
-1.5571e-40
8.65276e-41
-1.3268e-41
2.32793e-42
-7.87394e-43
1.02615e-43
-5.46828e-44
5.63082e-45
-3.02923e-45
3.9702e-46
-1.81735e-46
2.37638e-47
-9.3641e-48
1.48477e-48
-5.00464e-49
8.06161e-50
-2.40072e-50
4.41527e-51
-1.16513e-51
2.18672e-52
-5.21752e-53
1.07632e-53
-2.32931e-54
4.9134e-55
-9.76896e-56
2.21023e-56
-4.04885e-57
9.37197e-58
-1.59545e-58
3.89675e-59
-6.18067e-60
1.54381e-60
-2.29485e-61
5.98104e-62
-7.26087e-63
2.22526e-63
3.17206e-62
1.11756e-64
9.16937e-61
9.38113e-64
2.53432e-59
2.73422e-62
6.86007e-58
7.81935e-61
1.78251e-56
2.15702e-59
4.54713e-55
5.82943e-58
1.10528e-53
1.51137e-56
2.64872e-52
3.84915e-55
5.98431e-51
9.33178e-54
1.34243e-49
2.23265e-52
2.79512e-48
5.02803e-51
5.84693e-47
1.12617e-49
1.10876e-45
2.33474e-48
2.15445e-44
4.87458e-47
3.65778e-43
9.16382e-46
6.58128e-42
1.75937e-44
9.74129e-41
2.8203e-43
1.62105e-39
4.24401e-42
1.99311e-38
1.38706e-41
3.06037e-37
-1.85908e-39
2.70946e-36
-1.1645e-37
3.60782e-35
-4.27928e-36
-1.17809e-34
3.47e-37
1.93828e-34
-3.81325e-37
5.29629e-36
-2.60942e-38
2.06013e-37
-3.33784e-39
6.55292e-39
-2.12486e-40
2.40319e-40
-1.85129e-41
1.05998e-41
-1.11631e-42
7.41829e-43
-7.9216e-44
4.63036e-44
-4.46923e-45
3.25287e-45
-2.73773e-46
1.90963e-46
-1.43783e-47
1.16399e-47
-7.84133e-49
6.22942e-49
-3.83452e-50
3.36781e-50
-1.89786e-51
1.65628e-51
-8.66222e-53
8.10597e-53
-3.94166e-54
3.69145e-54
-1.68434e-55
1.65827e-55
-7.11175e-57
7.03553e-57
-2.85419e-58
2.92942e-58
-1.12588e-59
1.16363e-59
-4.2561e-61
4.52317e-61
-1.46143e-62
1.68883e-62
3.32179e-62
5.42559e-64
9.67067e-61
-2.2045e-63
2.67179e-59
-6.50955e-62
7.2282e-58