/*--------------------------------*- C++ -*----------------------------------*\
| =========                 |                                                 |
| \\      /  F ield         | OpenFOAM: The Open Source CFD Toolbox           |
|  \\    /   O peration     | Version:  2.4.0                                 |
|   \\  /    A nd           | Web:      www.OpenFOAM.org                      |
|    \\/     M anipulation  |                                                 |
\*---------------------------------------------------------------------------*/
FoamFile
{
    version     2.0;
    format      ascii;
    class       volVectorField;
    location    "0.3";
    object      U;
}
// * * * * * * * * * * * * * * * * * * * * * * * * * * * * * * * * * * * * * //

dimensions      [0 1 -1 0 0 0 0];

internalField   nonuniform List<vector> 
1915
(
(-1.42509e-33 2.00449e-33 0)
(-1.59894e-34 1.28613e-34 0)
(-1.08441e-35 1.06905e-35 0)
(-9.08348e-37 6.38247e-37 0)
(-5.64456e-38 4.36524e-38 0)
(-3.89849e-39 2.41981e-39 0)
(-2.22044e-40 1.43621e-40 0)
(-1.32901e-41 7.38595e-42 0)
(-6.96759e-43 3.91483e-43 0)
(-3.72e-44 1.87189e-44 0)
(-1.80447e-45 9.02275e-46 0)
(-8.75355e-47 4.02487e-47 0)
(-3.94841e-48 1.78624e-48 0)
(-1.72647e-49 7.46634e-50 0)
(8.0382e-50 4.29075e-51 0)
(2.11061e-48 2.272e-50 0)
(4.78927e-47 4.19484e-49 0)
(1.07565e-45 6.85469e-48 0)
(2.2468e-44 1.14311e-46 0)
(4.69675e-43 1.57611e-45 0)
(8.93132e-42 2.31352e-44 0)
(1.73069e-40 2.48552e-43 0)
(2.9478e-39 3.09854e-42 0)
(5.27457e-38 2.10636e-41 0)
(7.84879e-37 2.04197e-40 0)
(-6.50188e-32 1.13877e-35 0)
(-9.76696e-31 1.98223e-36 0)
(-5.25447e-30 1.36172e-36 0)
(-9.54816e-29 1.26999e-37 0)
(-3.16129e-29 2.62409e-38 0)
(9.18307e-29 3.88695e-39 0)
(2.97021e-30 -2.77666e-39 0)
(-3.03126e-29 -3.39452e-37 0)
(4.03028e-31 -2.1837e-35 0)
(3.32868e-29 -8.09825e-34 0)
(3.5241e-29 -2.25273e-32 0)
(3.55623e-29 -4.24592e-31 0)
(3.52668e-29 -2.25273e-32 0)
(3.35993e-29 -8.09828e-34 0)
(1.9885e-30 -2.18419e-35 0)
(2.30054e-32 -3.39502e-37 0)
(-1.64198e-30 1.6184e-39 0)
(-3.15901e-29 8.33555e-40 0)
(-1.66483e-30 1.6161e-39 0)
(-3.21052e-31 1.15329e-40 0)
(-2.05688e-32 1.28612e-41 0)
(-2.27798e-33 8.03907e-43 0)
(-1.44479e-34 6.44157e-44 0)
(-1.19715e-35 3.75937e-45 0)
(-7.14737e-37 2.51213e-46 0)
(-4.89155e-38 1.36802e-47 0)
(-2.71328e-39 7.99065e-49 0)
(-1.6113e-40 4.05229e-50 0)
(-8.29036e-42 2.12258e-51 0)
(-4.39586e-43 1.00363e-52 0)
(-2.10261e-44 4.77765e-54 0)
(-1.01374e-45 -1.69537e-55 0)
(-4.52318e-47 -9.33484e-54 0)
(-2.00752e-48 -2.19436e-52 0)
(-7.81364e-50 -5.12813e-51 0)
(1.44148e-49 -1.14097e-49 0)
(3.56542e-48 -2.54574e-48 0)
(8.27534e-47 -5.35407e-47 0)
(1.78893e-45 -1.13935e-45 0)
(3.77582e-44 -2.25167e-44 0)
(7.29398e-43 -4.55098e-43 0)
(1.40312e-41 -8.35414e-42 0)
(2.39643e-40 -1.59196e-40 0)
(4.1958e-39 -2.66346e-39 0)
(6.20324e-38 -4.74415e-38 0)
(-4.46667e-33 5.61749e-33 0)
(-5.94388e-32 5.22997e-32 0)
(-3.14292e-31 7.10838e-31 0)
(-4.04662e-30 1.82767e-31 0)
(-1.3365e-30 -1.39786e-30 0)
(3.82776e-30 -2.6723e-31 0)
(1.77198e-31 9.08187e-31 0)
(-1.25741e-30 2.9246e-32 0)
(2.51999e-32 -4.79821e-31 0)
(1.43704e-30 -2.6966e-31 0)
(1.55698e-30 -4.33957e-32 0)
(1.57329e-30 -4.24718e-31 0)
(1.55236e-30 -3.6321e-33 0)
(1.45547e-30 2.51651e-31 0)
(1.19326e-31 2.54326e-31 0)
(1.59514e-33 3.59253e-32 0)
(-9.80893e-32 2.35453e-31 0)
(-1.33491e-30 1.39992e-34 0)
(-9.96742e-32 -2.33297e-31 0)
(-1.94943e-32 -1.68899e-32 0)
(-1.42509e-33 -2.00449e-33 0)
(-1.59894e-34 -1.28613e-34 0)
(-1.08441e-35 -1.06905e-35 0)
(-9.08348e-37 -6.38247e-37 0)
(-5.64456e-38 -4.36524e-38 0)
(-3.89849e-39 -2.41981e-39 0)
(-2.22044e-40 -1.43621e-40 0)
(-1.32901e-41 -7.38595e-42 0)
(-6.96759e-43 -3.91483e-43 0)
(-3.72e-44 -1.87189e-44 0)
(-1.80447e-45 -9.02275e-46 0)
(-8.75355e-47 -4.02487e-47 0)
(-3.94865e-48 -1.78631e-48 0)
(-1.78334e-49 -7.60297e-50 0)
(-4.61397e-50 -3.21381e-50 0)
(-7.12086e-49 -5.42159e-49 0)
(-1.14661e-47 -1.00934e-47 0)
(-1.87381e-46 -1.66408e-46 0)
(-2.48931e-45 -2.79948e-45 0)
(-3.46867e-44 -3.94636e-44 0)
(-3.25244e-43 -5.91392e-43 0)
(-3.28674e-42 -6.74293e-42 0)
(-1.31715e-42 -8.88043e-41 0)
(2.64541e-40 -7.51868e-40 0)
(8.55907e-39 -8.94708e-39 0)
(-7.68896e-34 2.47196e-33 0)
(-6.3008e-33 3.91447e-33 0)
(-1.16611e-32 4.19792e-32 0)
(-1.10912e-31 1.02215e-32 0)
(-3.78095e-32 -8.18972e-32 0)
(1.02254e-31 -1.60036e-32 0)
(4.67925e-33 5.29601e-32 0)
(-3.03482e-32 1.99947e-33 0)
(2.46037e-33 -2.82512e-32 0)
(4.15157e-32 -1.61952e-32 0)
(4.94672e-32 -2.96351e-33 0)
(4.81066e-32 -2.06285e-32 0)
(4.32628e-32 -2.2433e-34 0)
(4.28103e-32 1.49132e-32 0)
(5.22761e-33 1.51214e-32 0)
(1.69495e-34 2.47095e-33 0)
(-3.22577e-33 1.38242e-32 0)
(-3.76373e-32 1.05289e-35 0)
(-3.39534e-33 -1.36723e-32 0)
(-1.8367e-33 -1.16e-33 0)
(-1.49694e-34 -1.40477e-34 0)
(-2.00191e-35 -9.66247e-36 0)
(-1.42302e-36 -8.12486e-37 0)
(-1.26862e-37 -5.0504e-38 0)
(-8.0634e-39 -3.48615e-39 0)
(-5.72269e-40 -1.98459e-40 0)
(-3.29503e-41 -1.18723e-41 0)
(-1.9964e-42 -6.22185e-43 0)
(-1.05116e-43 -3.32073e-44 0)
(-5.63727e-45 -1.61036e-45 0)
(-2.73513e-46 -7.81024e-47 0)
(-1.32678e-47 -3.52247e-48 0)
(-5.98578e-49 -1.58336e-49 0)
(-5.85727e-50 -3.01413e-50 0)
(-5.96022e-49 -4.8124e-49 0)
(-1.10342e-47 -8.97076e-48 0)
(-1.80717e-46 -1.67814e-46 0)
(-3.01636e-45 -2.76291e-45 0)
(-4.18719e-44 -4.67081e-44 0)
(-6.16203e-43 -6.53794e-43 0)
(-6.71912e-42 -9.80924e-42 0)
(-8.40062e-41 -1.08479e-40 0)
(-5.89186e-40 -1.39748e-39 0)
(-5.66883e-39 -1.00736e-38 0)
(-5.51516e-39 -1.01562e-37 0)
(-1.40474e-32 1.49258e-32 0)
(-2.17345e-32 4.57055e-33 0)
(-2.06504e-33 8.12626e-33 0)
(-2.44093e-33 1.3867e-33 0)
(-8.09941e-34 -9.03246e-33 0)
(1.87456e-33 -1.77337e-33 0)
(5.50668e-35 5.85008e-33 0)
(-4.03163e-34 2.19414e-34 0)
(1.30294e-34 -3.12578e-33 0)
(8.91131e-34 -1.81633e-33 0)
(1.23388e-33 -4.21218e-34 0)
(1.13173e-33 -3.40355e-33 0)
(8.51675e-34 -1.07241e-34 0)
(9.4772e-34 1.63712e-33 0)
(1.76355e-34 1.67915e-33 0)
(9.65558e-36 2.7976e-34 0)
(-7.28955e-35 1.53261e-33 0)
(-7.77406e-34 1.39956e-36 0)
(-8.25824e-35 -1.51319e-33 0)
(-9.4417e-35 -1.30286e-34 0)
(-8.5025e-36 -1.79066e-35 0)
(-1.19566e-36 -1.27827e-36 0)
(-8.93228e-38 -1.14012e-37 0)
(-8.11382e-39 -7.24466e-39 0)
(-5.31165e-40 -5.13842e-40 0)
(-3.80973e-41 -2.95737e-41 0)
(-2.23611e-42 -1.79104e-42 0)
(-1.36444e-43 -9.42736e-44 0)
(-7.27936e-45 -5.05437e-45 0)
(-3.92398e-46 -2.45177e-46 0)
(-1.92168e-47 -1.18909e-47 0)
(-9.37058e-49 -5.35547e-49 0)
(-6.85654e-50 -3.66692e-50 0)
(-5.37092e-49 -2.66361e-49 0)
(-9.97947e-48 -5.42158e-48 0)
(-1.86624e-46 -1.0123e-46 0)
(-3.07119e-45 -1.89648e-45 0)
(-5.18954e-44 -3.13902e-44 0)
(-7.25821e-43 -5.33341e-43 0)
(-1.0882e-41 -7.55964e-42 0)
(-1.20161e-40 -1.14585e-40 0)
(-1.54664e-39 -1.30058e-39 0)
(-1.11285e-38 -1.70338e-38 0)
(-1.12526e-37 -1.29231e-37 0)
(-1.40181e-37 -1.3161e-36 0)
(-4.1826e-31 2.49841e-31 0)
(-4.5984e-31 1.36183e-32 0)
(-2.73847e-32 7.73851e-34 0)
(-4.73025e-33 7.48391e-35 0)
(-3.21761e-34 -4.87954e-34 0)
(-4.91639e-35 -9.67605e-35 0)
(-7.91961e-36 3.14367e-34 0)
(2.31446e-35 1.26183e-35 0)
(9.82539e-36 -1.68877e-34 0)
(8.56468e-36 -9.94967e-35 0)
(3.45092e-35 -2.58315e-35 0)
(2.09048e-35 -1.89109e-34 0)
(-5.86346e-36 -7.52155e-36 0)
(1.1647e-35 8.84757e-35 0)
(8.0939e-36 9.1239e-35 0)
(7.38632e-37 1.62595e-35 0)
(-4.71064e-37 8.2739e-35 0)
(-4.4304e-36 8.81714e-38 0)
(-1.21745e-36 -8.1569e-35 0)
(-7.0061e-36 -7.55325e-36 0)
(-6.49991e-37 -1.07452e-36 0)
(-9.7899e-38 -8.04015e-38 0)
(-7.45389e-39 -7.29976e-39 0)
(-6.96075e-40 -4.7766e-40 0)
(-4.60675e-41 -3.42368e-41 0)
(-3.34592e-42 -2.00869e-42 0)
(-1.97445e-43 -1.22515e-43 0)
(-1.21094e-44 -6.53435e-45 0)
(-6.47099e-46 -3.52141e-46 0)
(-3.49119e-47 -1.72418e-47 0)
(-1.70875e-48 -8.39824e-49 0)
(-9.73677e-50 -4.62326e-50 0)
(-2.99504e-49 -1.84339e-49 0)
(-6.04138e-48 -3.78346e-48 0)
(-1.1277e-46 -7.79917e-47 0)
(-2.11206e-45 -1.46437e-45 0)
(-3.4944e-44 -2.77803e-44 0)
(-5.93477e-43 -4.6337e-43 0)
(-8.40656e-42 -8.01689e-42 0)
(-1.27362e-40 -1.14933e-40 0)
(-1.44488e-39 -1.79059e-39 0)
(-1.895e-38 -2.07103e-38 0)
(-1.45176e-37 -2.83426e-37 0)
(-1.51815e-36 -2.22562e-36 0)
(-2.90019e-36 -2.42814e-35 0)
(-1.0196e-32 2.75253e-31 0)
(-2.33822e-32 1.25108e-32 0)
(-1.87342e-33 -2.83238e-33 0)
(-3.1869e-34 -2.3842e-34 0)
(-2.34916e-35 -6.67108e-35 0)
(-5.1739e-36 -9.38443e-36 0)
(-5.9477e-37 2.40339e-35 0)
(1.80328e-36 9.57853e-37 0)
(5.0559e-37 -1.30112e-35 0)
(-2.51761e-37 -7.75429e-36 0)
(1.07065e-36 -2.3887e-36 0)
(2.89509e-37 -1.88375e-35 0)
(-1.15478e-36 -9.52561e-37 0)
(-1.27414e-37 6.75155e-36 0)
(3.42851e-37 7.03923e-36 0)
(3.91817e-38 1.26727e-36 0)
(4.2415e-38 6.38015e-36 0)
(4.15133e-37 7.38921e-39 0)
(2.67232e-39 -6.28383e-36 0)
(-3.54227e-37 -5.86428e-37 0)
(-3.45197e-38 -8.83345e-38 0)
(-5.32149e-39 -6.72354e-39 0)
(-4.17696e-40 -6.27123e-40 0)
(-3.9451e-41 -4.14808e-41 0)
(-2.66253e-42 -3.01068e-42 0)
(-1.94695e-43 -1.77591e-43 0)
(-1.16382e-44 -1.08872e-44 0)
(-7.16869e-46 -5.81627e-46 0)
(-3.86387e-47 -3.13712e-47 0)
(-2.09079e-48 -1.53467e-48 0)
(-1.12019e-49 -7.70142e-50 0)
(-2.08792e-49 -5.81529e-50 0)
(-4.22074e-48 -1.2158e-48 0)
(-8.69836e-47 -2.51994e-47 0)
(-1.63275e-45 -5.19557e-46 0)
(-3.09649e-44 -9.80744e-45 0)
(-5.16268e-43 -1.86788e-43 0)
(-8.92831e-42 -3.15688e-42 0)
(-1.27922e-40 -5.51635e-41 0)
(-1.99235e-39 -8.13111e-40 0)
(-2.30526e-38 -1.29268e-38 0)
(-3.1671e-37 -1.58411e-37 0)
(-2.54544e-36 -2.24615e-36 0)
(-2.92861e-35 -1.98355e-35 0)
(-8.22944e-35 -2.21477e-34 0)
(2.61908e-33 7.63203e-31 0)
(-2.17859e-33 4.10949e-32 0)
(-1.74103e-34 1.31792e-33 0)
(-4.21558e-35 2.55769e-35 0)
(-3.25816e-36 -3.04438e-36 0)
(-5.94383e-37 -5.11181e-37 0)
(-5.65214e-38 1.22185e-36 0)
(1.26107e-37 5.06017e-38 0)
(3.1826e-38 -6.65786e-37 0)
(-3.07158e-38 -4.01263e-37 0)
(6.32115e-38 -1.35996e-37 0)
(4.33225e-41 -1.03003e-36 0)
(-1.045e-37 -5.90956e-38 0)
(-2.58008e-38 3.44423e-37 0)
(1.95936e-38 3.61387e-37 0)
(2.45858e-39 6.77107e-38 0)
(4.24983e-39 3.26296e-37 0)
(4.08285e-38 4.14783e-40 0)
(1.7384e-39 -3.21041e-37 0)
(-2.21242e-38 -3.12871e-38 0)
(-2.17501e-39 -4.80788e-39 0)
(-3.44699e-40 -3.77054e-40 0)
(-2.73107e-41 -3.55624e-41 0)
(-2.61196e-42 -2.39862e-42 0)
(-1.77304e-43 -1.75272e-43 0)
(-1.30341e-44 -1.0473e-44 0)
(-7.81123e-46 -6.44828e-46 0)
(-4.81748e-47 -3.47462e-47 0)
(-2.5969e-48 -1.87935e-48 0)
(-1.43043e-49 -9.36135e-50 0)
(-6.82944e-50 -3.23458e-50 0)
(-1.36259e-48 -6.3045e-49 0)
(-2.82322e-47 -1.41327e-47 0)
(-5.81935e-46 -2.94961e-46 0)
(-1.09812e-44 -6.16301e-45 0)
(-2.09063e-43 -1.17256e-43 0)
(-3.53151e-42 -2.27275e-42 0)
(-6.16795e-41 -3.87721e-41 0)
(-9.08633e-40 -6.94213e-40 0)
(-1.44488e-38 -1.03511e-38 0)
(-1.7765e-37 -1.70672e-37 0)
(-2.55201e-36 -2.12376e-36 0)
(-2.40543e-35 -3.20523e-35 0)
(-3.1003e-34 -2.90592e-34 0)
(-1.80844e-33 -3.74066e-33 0)
(-1.45219e-32 5.06127e-31 0)
(6.40415e-33 2.75787e-32 0)
(3.72562e-34 1.20878e-33 0)
(2.87696e-35 4.59039e-35 0)
(9.82727e-37 2.43163e-36 0)
(-3.33951e-38 1.19606e-37 0)
(-7.68012e-39 8.8304e-38 0)
(5.44215e-39 3.8977e-39 0)
(1.48432e-39 -4.17481e-38 0)
(-1.60185e-39 -2.54468e-38 0)
(3.14783e-39 -9.80197e-39 0)
(-1.97531e-40 -7.73137e-38 0)
(-5.52038e-39 -4.92132e-39 0)
(-1.45855e-39 2.14059e-38 0)
(9.10501e-40 2.26946e-38 0)
(1.20873e-40 4.28369e-39 0)
(2.27651e-40 2.04887e-38 0)
(2.1147e-39 2.71635e-41 0)
(1.03623e-40 -2.01477e-38 0)
(-1.05967e-39 -1.97605e-39 0)
(-1.07315e-40 -3.11725e-40 0)
(-1.71876e-41 -2.46713e-41 0)
(-1.3892e-42 -2.35597e-42 0)
(-1.33647e-43 -1.59826e-43 0)
(-9.19125e-45 -1.17408e-44 0)
(-6.77997e-46 -7.03336e-46 0)
(-4.09751e-47 -4.33594e-47 0)
(-2.53183e-48 -2.33659e-48 0)
(-1.38493e-49 -1.26231e-49 0)
(-3.87085e-50 -6.47055e-51 0)
(-7.08462e-49 -6.86783e-51 0)
(-1.58747e-47 -1.55881e-49 0)
(-3.31232e-46 -3.49281e-48 0)
(-6.91859e-45 -7.74619e-47 0)
(-1.31581e-43 -1.59743e-45 0)
(-2.54923e-42 -3.29529e-44 0)
(-4.34638e-41 -6.17629e-43 0)
(-7.77749e-40 -1.17932e-41 0)
(-1.15889e-38 -1.97282e-40 0)
(-1.91069e-37 -3.4706e-39 0)
(-2.38378e-36 -5.04165e-38 0)
(-3.63633e-35 -8.15616e-37 0)
(-3.49457e-34 -9.84256e-36 0)
(-5.0712e-33 -1.45943e-34 0)
(-3.03145e-32 -1.26924e-33 0)
(-2.69127e-32 -2.20507e-31 0)
(-1.80723e-32 -7.70881e-33 0)
(-1.56651e-33 3.47504e-33 0)
(-2.87766e-34 2.81342e-34 0)
(-2.22745e-35 3.2821e-35 0)
(-2.44816e-36 2.15344e-36 0)
(-1.70438e-37 1.79259e-37 0)
(-1.37833e-38 1.07245e-38 0)
(-8.0482e-40 -1.29388e-39 0)
(-1.46411e-40 -1.19493e-39 0)
(1.97973e-40 -5.14296e-40 0)
(-1.40099e-41 -3.99591e-39 0)
(-3.35758e-40 -2.75124e-40 0)
(-8.50855e-41 1.02297e-39 0)
(4.82038e-41 1.0922e-39 0)
(6.5238e-42 2.11697e-40 0)
(1.26507e-41 9.83692e-40 0)
(1.16674e-40 1.38282e-42 0)
(5.90967e-42 -9.66656e-40 0)
(-5.72052e-41 -9.7591e-41 0)
(-5.8274e-42 -1.5551e-41 0)
(-9.44771e-43 -1.25542e-42 0)
(-7.67989e-44 -1.20589e-43 0)
(-7.4265e-45 -8.28787e-45 0)
(-5.12389e-46 -6.10912e-46 0)
(-3.78462e-47 -3.69059e-47 0)
(-2.28931e-48 -2.2794e-48 0)
(-1.41323e-49 -1.23482e-49 0)
(-8.06629e-51 -6.74801e-51 0)
(-1.04264e-50 -2.24474e-51 0)
(-2.34294e-49 -4.68332e-50 0)
(-5.23559e-48 -1.1577e-48 0)
(-1.14122e-46 -2.61587e-47 0)
(-2.35285e-45 -6.085e-46 0)
(-4.75068e-44 -1.25836e-44 0)
(-8.93484e-43 -2.74961e-43 0)
(-1.65968e-41 -5.12912e-42 0)
(-2.80134e-40 -1.05255e-40 0)
(-4.74881e-39 -1.73432e-39 0)
(-7.01098e-38 -3.35474e-38 0)
(-1.07418e-36 -4.74342e-37 0)
(-1.32243e-35 -8.80201e-36 0)
(-1.795e-34 -1.03895e-34 0)
(-1.59535e-33 -1.92171e-33 0)
(-1.69875e-32 -1.73305e-32 0)
(-4.65969e-31 -8.58597e-33 0)
(-5.0978e-31 -6.6879e-34 0)
(-3.03382e-32 -1.95389e-35 0)
(-5.25094e-33 -1.91368e-37 0)
(-3.50988e-34 4.92406e-38 0)
(-3.72901e-35 3.86172e-39 0)
(-2.40842e-36 5.04267e-40 0)
(-1.95461e-37 2.56754e-41 0)
(-1.17648e-38 -1.07498e-40 0)
(-7.99785e-40 -6.73171e-41 0)
(-3.44083e-41 -3.12132e-41 0)
(-3.27563e-42 -2.47471e-40 0)
(-1.61533e-41 -1.80635e-41 0)
(-3.97793e-42 5.47287e-41 0)
(2.13161e-42 5.90243e-41 0)
(2.97148e-43 1.15095e-41 0)
(5.82117e-43 5.31654e-41 0)
(5.25812e-42 7.64902e-44 0)
(2.73484e-43 -5.22284e-41 0)
(-2.56494e-42 -5.3027e-42 0)
(-2.66794e-43 -8.55158e-43 0)
(-4.34408e-44 -6.94292e-44 0)
(-3.58007e-45 -6.70323e-45 0)
(-3.46976e-46 -4.62185e-46 0)
(-2.41491e-47 -3.4113e-47 0)
(-1.78533e-48 -2.06265e-48 0)
(-1.08566e-49 -1.27263e-49 0)
(-6.83486e-51 -6.88634e-51 0)
(-3.79517e-51 -3.42762e-52 0)
(-8.32444e-50 7.01053e-52 0)
(-1.99221e-48 1.73282e-50 0)
(-4.48859e-47 4.08602e-49 0)
(-1.00601e-45 9.14863e-48 0)
(-2.08703e-44 2.01311e-46 0)
(-4.36391e-43 4.15282e-45 0)
(-8.23357e-42 8.48046e-44 0)
(-1.60077e-40 1.58916e-42 0)
(-2.69747e-39 2.96896e-41 0)
(-4.86578e-38 4.79484e-40 0)
(-7.11636e-37 7.1676e-39 0)
(-1.19213e-35 4.29427e-38 0)
(-1.43485e-34 -1.95211e-36 0)
(-2.23749e-33 -1.3168e-34 0)
(-1.88598e-32 -4.57431e-33 0)
(-2.60851e-31 -1.10764e-31 0)
(-2.33432e-32 -1.83604e-32 0)
(-1.98784e-32 -4.74964e-33 0)
(-1.686e-33 -3.90829e-33 0)
(-3.03663e-34 -2.92613e-34 0)
(-2.32576e-35 -3.29519e-35 0)
(-2.53293e-36 -2.14987e-36 0)
(-1.75357e-37 -1.7489e-37 0)
(-1.44745e-38 -1.05264e-38 0)
(-9.08346e-40 -7.16338e-40 0)
(-6.24129e-41 -4.26403e-41 0)
(-3.01451e-42 -3.85566e-42 0)
(-2.44524e-43 -1.20709e-41 0)
(-8.53186e-43 -9.26649e-43 0)
(-1.99227e-43 2.44121e-42 0)
(1.00744e-43 2.6533e-42 0)
(1.42214e-44 5.27224e-43 0)
(2.80956e-44 2.38639e-42 0)
(2.52495e-43 3.56672e-45 0)
(1.32198e-44 -2.34324e-42 0)
(-1.23001e-43 -2.42874e-43 0)
(-1.28606e-44 -3.93319e-44 0)
(-2.10372e-45 -3.23733e-45 0)
(-1.74043e-46 -3.13256e-46 0)
(-1.68851e-47 -2.17877e-47 0)
(-1.17717e-48 -1.60956e-48 0)
(-8.69305e-50 -9.78328e-50 0)
(-5.28429e-51 -6.03504e-51 0)
(-3.10307e-52 -3.13319e-52 0)
(3.63552e-52 3.51426e-52 0)
(9.20667e-51 9.40492e-51 0)
(2.18898e-49 2.28158e-49 0)
(4.90968e-48 5.46289e-48 0)
(1.09097e-46 1.231e-46 0)
(2.25178e-45 2.75966e-45 0)
(4.65651e-44 5.72522e-44 0)
(8.73454e-43 1.19698e-42 0)
(1.67311e-41 2.25448e-41 0)
(2.80028e-40 4.35451e-40 0)
(4.94632e-39 7.12663e-39 0)
(7.17562e-38 1.16115e-37 0)
(1.16439e-36 9.73512e-37 0)
(1.38699e-35 -1.54236e-35 0)
(2.04786e-34 -1.62949e-33 0)
(1.69583e-33 -6.39592e-32 0)
(2.07645e-32 -1.84095e-30 0)
(-4.31997e-33 -2.8174e-31 0)
(1.26076e-33 -1.54432e-32 0)
(4.24746e-35 -7.81672e-34 0)
(-1.42186e-35 -3.5209e-35 0)
(-1.60671e-36 -2.56248e-36 0)
(-2.42679e-37 -1.60442e-37 0)
(-1.87506e-38 -1.2802e-38 0)
(-1.71996e-39 -7.99087e-40 0)
(-1.1337e-40 -5.49521e-41 0)
(-8.14989e-42 -3.28311e-42 0)
(-4.52929e-43 -2.67251e-43 0)
(-3.05375e-44 -6.50257e-43 0)
(-3.9028e-44 -5.17507e-44 0)
(-8.70262e-45 1.1593e-43 0)
(4.16691e-45 1.27278e-43 0)
(6.01923e-46 2.54223e-44 0)
(1.19689e-45 1.14501e-43 0)
(1.0596e-44 1.73401e-46 0)
(5.63576e-46 -1.12411e-43 0)
(-5.15834e-45 -1.17112e-44 0)
(-5.47816e-46 -1.9052e-45 0)
(-8.96565e-47 -1.57417e-46 0)
(-7.48971e-48 -1.52475e-47 0)
(-7.26425e-49 -1.06229e-48 0)
(-5.09339e-50 -7.83886e-50 0)
(-3.75726e-51 -4.76362e-51 0)
(-2.18518e-52 -2.93147e-52 0)
(2.60707e-52 -1.60701e-53 0)
(7.00211e-51 -5.7556e-54 0)
(1.69856e-49 -1.25023e-52 0)
(4.06681e-48 -3.03165e-51 0)
(9.16293e-47 -7.26038e-50 0)
(2.05408e-45 -1.63591e-48 0)
(4.26104e-44 -3.66821e-47 0)
(8.91157e-43 -7.60835e-46 0)
(1.68107e-41 -1.59067e-44 0)
(3.26901e-40 -2.99178e-43 0)
(5.50665e-39 -5.7559e-42 0)
(9.93478e-38 -9.24593e-41 0)
(1.45209e-36 -1.40477e-39 0)
(2.43277e-35 -5.25966e-39 0)
(2.92502e-34 5.76845e-37 0)
(4.56092e-33 3.70402e-35 0)
(3.83782e-32 1.37253e-33 0)
(5.30692e-31 3.81697e-32 0)
(3.5181e-33 -2.8367e-31 0)
(-1.8006e-33 -1.5397e-32 0)
(-1.15932e-34 -5.95867e-34 0)
(-1.66539e-35 -1.85135e-35 0)
(-1.06396e-36 -6.31754e-37 0)
(-9.94661e-38 -2.55231e-38 0)
(-6.12904e-39 -1.71542e-39 0)
(-4.57707e-40 -1.05294e-40 0)
(-2.65076e-41 -7.41668e-42 0)
(-1.69002e-42 -4.38854e-43 0)
(-8.9868e-44 -2.99653e-44 0)
(-5.19228e-45 -3.02344e-44 0)
(-2.01961e-45 -2.47316e-45 0)
(-4.02313e-46 4.82713e-45 0)
(1.7794e-46 5.3461e-45 0)
(2.60445e-47 1.08295e-45 0)
(5.22185e-47 4.80525e-45 0)
(4.60298e-46 7.4617e-48 0)
(2.45998e-47 -4.71612e-45 0)
(-2.24041e-46 -4.98988e-46 0)
(-2.39072e-47 -8.12128e-47 0)
(-3.91363e-48 -6.77539e-48 0)
(-3.27821e-49 -6.56078e-49 0)
(-3.1746e-50 -4.597e-50 0)
(-2.22733e-51 -3.38892e-51 0)
(-1.63862e-52 -2.06563e-52 0)
(-9.60899e-54 -1.32189e-53 0)
(8.99426e-54 -1.5e-53 0)
(2.42502e-52 -3.713e-52 0)
(5.8448e-51 -9.46233e-51 0)
(1.38371e-49 -2.29534e-49 0)
(3.09548e-48 -5.49631e-48 0)
(6.84208e-47 -1.23854e-46 0)
(1.40811e-45 -2.77685e-45 0)
(2.89172e-44 -5.76089e-44 0)
(5.40624e-43 -1.20457e-42 0)
(1.02578e-41 -2.26869e-41 0)
(1.71023e-40 -4.38212e-40 0)
(2.97948e-39 -7.16797e-39 0)
(4.30231e-38 -1.166e-37 0)
(6.83049e-37 -9.63953e-37 0)
(8.08661e-36 1.62922e-35 0)
(1.14678e-34 1.67226e-33 0)
(9.38419e-34 6.5469e-32 0)
(1.03243e-32 1.88173e-30 0)
(-2.27304e-34 -2.74251e-32 0)
(1.14745e-34 -2.06232e-33 0)
(7.33208e-36 -1.10791e-34 0)
(8.77853e-37 -4.44491e-36 0)
(4.97098e-38 -2.33219e-37 0)
(3.71739e-39 -1.14282e-38 0)
(1.87051e-40 -7.52099e-40 0)
(1.0501e-41 -4.14126e-41 0)
(4.43319e-43 -2.55655e-42 0)
(1.7973e-44 -1.34805e-43 0)
(5.39787e-46 -7.59319e-45 0)
(-1.13824e-49 -1.74053e-45 0)
(-7.43802e-47 -1.35775e-46 0)
(-1.59282e-47 2.06878e-46 0)
(6.91247e-48 2.32164e-46 0)
(1.02928e-48 4.72518e-47 0)
(2.07592e-48 2.08772e-46 0)
(1.80912e-47 3.26501e-49 0)
(9.78488e-49 -2.04881e-46 0)
(-8.80305e-48 -2.17803e-47 0)
(-9.50789e-49 -3.5456e-48 0)
(-1.55326e-49 -2.96598e-49 0)
(-1.31011e-50 -2.86758e-50 0)
(-1.26602e-51 -2.01054e-51 0)
(-8.9147e-53 -1.47816e-52 0)
(-6.73818e-54 -9.00057e-54 0)
(-5.68498e-54 -5.79352e-55 0)
(-1.37133e-52 -7.92691e-55 0)
(-3.49419e-51 -1.96882e-53 0)
(-8.47516e-50 -4.97669e-52 0)
(-2.02927e-48 -1.20037e-50 0)
(-4.57227e-47 -2.84605e-49 0)
(-1.02508e-45 -6.37331e-48 0)
(-2.12659e-44 -1.4114e-46 0)
(-4.4483e-43 -2.90762e-45 0)
(-8.39237e-42 -5.9815e-44 0)
(-1.63241e-40 -1.11578e-42 0)
(-2.75045e-39 -2.09509e-41 0)
(-4.96422e-38 -3.29824e-40 0)
(-7.25875e-37 -4.62491e-39 0)
(-1.21686e-35 -3.40449e-39 0)
(-1.46412e-34 2.61025e-36 0)
(-2.28504e-33 1.4221e-34 0)
(-1.92505e-32 4.77497e-33 0)
(-2.66468e-31 1.14001e-31 0)
(-3.75727e-33 -2.99512e-31 0)
(1.90115e-33 -1.62285e-32 0)
(1.20665e-34 -6.00848e-34 0)
(1.60543e-35 -1.70332e-35 0)
(9.75039e-37 -3.44936e-37 0)
(8.48642e-38 -3.70934e-39 0)
(4.92883e-39 2.0451e-40 0)
(3.45256e-40 1.744e-41 0)
(1.88587e-41 1.16976e-42 0)
(1.13455e-42 6.13259e-44 0)
(5.78696e-44 3.29986e-45 0)
(3.09188e-45 1.00383e-46 0)
(1.44003e-46 2.59937e-48 0)
(6.4726e-48 8.44105e-48 0)
(5.88844e-49 9.14764e-48 0)
(5.50121e-50 1.87939e-48 0)
(8.36778e-50 8.20691e-48 0)
(7.2135e-49 1.30456e-50 0)
(3.91861e-50 -8.05238e-48 0)
(-3.50974e-49 -8.66348e-49 0)
(-3.80768e-50 -1.4074e-49 0)
(-6.20467e-51 -1.18547e-50 0)
(-5.24323e-52 -1.14371e-51 0)
(-5.05031e-53 -8.04721e-53 0)
(-3.55601e-54 -5.9019e-54 0)
(-2.77593e-55 -3.53383e-55 0)
(-4.89757e-55 1.54296e-55 0)
(-1.22363e-53 4.76541e-54 0)
(-3.09544e-52 1.23648e-52 0)
(-7.4698e-51 3.15141e-51 0)
(-1.77282e-49 7.64458e-50 0)
(-3.97224e-48 1.83059e-48 0)
(-8.80842e-47 4.12517e-47 0)
(-1.81616e-45 9.2496e-46 0)
(-3.74588e-44 1.91923e-44 0)
(-7.01886e-43 4.0152e-43 0)
(-1.33982e-41 7.57723e-42 0)
(-2.24003e-40 1.47428e-40 0)
(-3.9374e-39 2.48579e-39 0)
(-5.70603e-38 4.49289e-38 0)
(-9.18936e-37 6.60109e-37 0)
(-1.09351e-35 1.11795e-35 0)
(-1.5924e-34 1.39081e-34 0)
(-1.31584e-33 2.26253e-33 0)
(-1.55384e-32 2.15414e-32 0)
(3.99817e-33 -2.97552e-31 0)
(-2.02326e-33 -1.60941e-32 0)
(-1.30144e-34 -5.84052e-34 0)
(-1.74911e-35 -1.59923e-35 0)
(-1.07518e-36 -2.49856e-37 0)
(-9.45394e-38 2.14377e-39 0)
(-5.55579e-39 6.42969e-40 0)
(-3.93117e-40 4.29627e-41 0)
(-2.17183e-41 2.80462e-42 0)
(-1.31951e-42 1.49889e-43 0)
(-6.80368e-44 8.31624e-45 0)
(-3.67029e-45 4.07745e-46 0)
(-1.76609e-46 2.03275e-47 0)
(-8.65374e-48 1.26517e-48 0)
(-3.77765e-49 4.07492e-49 0)
(-1.59009e-50 7.70761e-50 0)
(2.36116e-51 3.27342e-49 0)
(2.65924e-50 5.25028e-52 0)
(1.45888e-51 -3.21091e-49 0)
(-1.29519e-50 -3.46986e-50 0)
(-1.41876e-51 -5.62256e-51 0)
(-2.30296e-52 -4.74483e-52 0)
(-1.95567e-53 -4.56283e-53 0)
(-1.87716e-54 -3.20994e-54 0)
(-1.32399e-55 -2.34488e-55 0)
(-9.54541e-57 -1.31472e-56 0)
(2.17137e-57 3.00069e-56 0)
(7.18169e-56 8.29179e-55 0)
(1.8417e-54 2.13964e-53 0)
(4.48495e-53 5.41056e-52 0)
(1.08047e-51 1.30517e-50 0)
(2.44283e-50 3.09665e-49 0)
(5.5114e-49 6.93747e-48 0)
(1.1459e-47 1.53828e-46 0)
(2.41144e-46 3.17234e-45 0)
(4.54856e-45 6.5448e-44 0)
(8.88874e-44 1.22726e-42 0)
(1.49019e-42 2.34458e-41 0)
(2.69155e-41 3.92694e-40 0)
(3.87693e-40 6.91651e-39 0)
(6.43836e-39 1.00743e-37 0)
(7.45699e-38 1.63371e-36 0)
(1.1247e-36 1.98313e-35 0)
(8.61636e-36 2.953e-34 0)
(1.09397e-34 2.59779e-33 0)
(4.00398e-33 -1.62486e-32 0)
(-2.05017e-33 -1.17761e-33 0)
(-1.33981e-34 -4.25023e-35 0)
(-1.93794e-35 -4.50583e-37 0)
(-1.24907e-36 1.62746e-37 0)
(-1.17182e-37 1.58873e-38 0)
(-7.25823e-39 1.59212e-39 0)
(-5.43101e-40 1.08492e-40 0)
(-3.1551e-41 7.9575e-42 0)
(-2.01359e-42 4.73457e-43 0)
(-1.0876e-43 2.91772e-44 0)
(-6.13194e-45 1.56616e-45 0)
(-3.07687e-46 8.48959e-47 0)
(-1.566e-47 4.18311e-48 0)
(-7.3118e-49 2.17315e-49 0)
(-3.40379e-50 1.20539e-50 0)
(-1.37295e-51 1.24945e-50 0)
(9.19671e-52 3.69364e-53 0)
(5.15531e-53 -1.18505e-50 0)
(-4.78725e-52 -1.29299e-51 0)
(-5.26518e-53 -2.0871e-52 0)
(-8.50836e-54 -1.7699e-53 0)
(-7.23423e-55 -1.6961e-54 0)
(-6.91071e-56 -1.19539e-55 0)
(-4.26612e-57 -8.47955e-57 0)
(1.627e-56 5.8921e-57 0)
(4.46095e-55 1.77276e-55 0)
(1.15025e-53 4.79804e-54 0)
(2.90667e-52 1.24521e-52 0)
(7.00733e-51 3.17622e-51 0)
(1.66165e-49 7.70889e-50 0)
(3.72102e-48 1.84784e-48 0)
(8.24793e-47 4.16664e-47 0)
(1.7007e-45 9.3545e-46 0)
(3.50848e-44 1.94242e-44 0)
(6.58091e-43 4.0705e-43 0)
(1.25765e-41 7.68838e-42 0)
(2.1083e-40 1.49927e-40 0)
(3.71529e-39 2.53075e-39 0)
(5.41442e-38 4.58876e-38 0)
(8.76061e-37 6.75346e-37 0)
(1.05414e-35 1.14968e-35 0)
(1.54579e-34 1.43605e-34 0)
(1.30344e-33 2.35762e-33 0)
(1.5433e-32 2.2652e-32 0)
(-4.32232e-33 -1.20227e-32 0)
(1.07875e-33 -6.81645e-34 0)
(1.9448e-35 2.35466e-34 0)
(-2.13974e-35 2.28824e-35 0)
(-2.20985e-36 2.7612e-36 0)
(-3.1613e-37 1.94103e-37 0)
(-2.40069e-38 1.60356e-38 0)
(-2.17045e-39 1.00335e-39 0)
(-1.42018e-40 6.84753e-41 0)
(-1.01325e-41 3.90778e-42 0)
(-5.92382e-43 2.32106e-43 0)
(-3.59936e-44 1.21725e-44 0)
(-1.91202e-45 6.46584e-46 0)
(-1.02735e-46 3.13516e-47 0)
(-5.01194e-48 1.51594e-48 0)
(-2.43463e-49 6.84116e-50 0)
(-1.09901e-50 3.48733e-51 0)
(-4.55642e-52 1.28751e-52 0)
(-1.8703e-53 -4.32688e-52 0)
(-1.74812e-53 -4.77745e-53 0)
(-1.87736e-54 -7.70312e-54 0)
(-2.9772e-55 -6.54436e-55 0)
(-2.5329e-56 -6.24538e-56 0)
(-2.15838e-57 -4.41015e-57 0)
(6.96011e-57 -6.49532e-58 0)
(1.96835e-55 -9.47293e-57 0)
(5.32641e-54 -2.60679e-55 0)
(1.38222e-52 -7.04042e-54 0)
(3.52539e-51 -1.82453e-52 0)
(8.55549e-50 -4.64317e-51 0)
(2.05056e-48 -1.12514e-49 0)
(4.62315e-47 -2.68941e-48 0)
(1.03781e-45 -6.05359e-47 0)
(2.15461e-44 -1.35433e-45 0)
(4.51444e-43 -2.80659e-44 0)
(8.52467e-42 -5.85454e-43 0)
(1.66186e-40 -1.10285e-41 0)
(2.80312e-39 -2.13451e-40 0)
(5.07506e-38 -3.57058e-39 0)
(7.43116e-37 -6.29079e-38 0)
(1.25143e-35 -8.50473e-37 0)
(1.50861e-34 -1.13361e-35 0)
(2.37129e-33 -1.63856e-35 0)
(2.00395e-32 2.53817e-33 0)
(2.81026e-31 1.01932e-31 0)
(-1.81279e-32 -2.8151e-31 0)
(-2.88159e-32 -1.04006e-32 0)
(-2.34697e-33 4.12234e-33 0)
(-4.07678e-34 3.36175e-34 0)
(-3.05758e-35 3.93608e-35 0)
(-3.27203e-36 2.58522e-36 0)
(-2.24047e-37 2.10684e-37 0)
(-1.83251e-38 1.26812e-38 0)
(-1.14266e-39 8.56738e-40 0)
(-7.78444e-41 4.76546e-41 0)
(-4.43705e-42 2.80675e-42 0)
(-2.63292e-43 1.44526e-43 0)
(-1.37969e-44 7.62151e-45 0)
(-7.32352e-46 3.64497e-46 0)
(-3.54879e-47 1.75068e-47 0)
(-1.71442e-48 7.80673e-49 0)
(-7.72375e-50 3.45711e-50 0)
(-3.4356e-51 1.44237e-51 0)
(-1.44572e-52 4.41224e-53 0)
(-6.55298e-54 6.46187e-55 0)
(-2.99903e-55 -1.79123e-55 0)
(-1.93325e-56 -1.95808e-56 0)
(-1.2224e-57 -2.0553e-57 0)
(-4.40505e-58 -1.8308e-58 0)
(-9.89104e-57 -1.00721e-57 0)
(-2.72631e-55 -2.85138e-56 0)
(-7.36552e-54 -7.87041e-55 0)
(-1.9092e-52 -2.12873e-53 0)
(-4.86023e-51 -5.52269e-52 0)
(-1.17797e-49 -1.40782e-50 0)
(-2.81671e-48 -3.41547e-49 0)
(-6.34115e-47 -8.18043e-48 0)
(-1.41925e-45 -1.84366e-46 0)
(-2.94151e-44 -4.13484e-45 0)
(-6.1395e-43 -8.58e-44 0)
(-1.15702e-41 -1.79501e-42 0)
(-2.24401e-40 -3.3835e-41 0)
(-3.77595e-39 -6.55381e-40 0)
(-6.78769e-38 -1.08272e-38 0)
(-9.90896e-37 -1.82523e-37 0)
(-1.65133e-35 -1.90981e-36 0)
(-1.9826e-34 1.45265e-36 0)
(-3.06484e-33 1.55185e-33 0)
(-2.57289e-32 6.56623e-32 0)
(-3.4958e-31 1.96878e-30 0)
(-5.44235e-31 3.45032e-31 0)
(-6.18382e-31 1.89897e-32 0)
(-3.68426e-32 7.0977e-34 0)
(-6.35816e-33 2.02664e-35 0)
(-4.24669e-34 4.1642e-37 0)
(-4.50445e-35 4.75871e-39 0)
(-2.90722e-36 -2.21026e-40 0)
(-2.35742e-37 -1.96012e-41 0)
(-1.41855e-38 -1.32297e-42 0)
(-9.58982e-40 -6.94999e-44 0)
(-5.3379e-41 -3.74601e-45 0)
(-3.14594e-42 -1.79208e-46 0)
(-1.6208e-43 -8.70123e-48 0)
(-8.55103e-45 -3.883e-49 0)
(-4.09113e-46 -1.73185e-50 0)
(-1.96557e-47 -7.23931e-52 0)
(-8.76741e-49 -2.94271e-53 0)
(-3.88163e-50 -1.17634e-54 0)
(-1.6205e-51 -5.70609e-55 0)
(-6.67017e-53 -5.98907e-56 0)
(-2.61705e-54 -9.31336e-57 0)
(-1.00992e-55 -7.9091e-58 0)
(-3.7775e-57 -7.39383e-59 0)
(-9.93917e-58 1.43489e-59 0)
(-2.45162e-56 5.72568e-58 0)
(-6.76475e-55 1.63877e-56 0)
(-1.82928e-53 4.52138e-55 0)
(-4.74493e-52 1.2221e-53 0)
(-1.20923e-50 3.16899e-52 0)
(-2.93301e-49 8.07194e-51 0)
(-7.02253e-48 1.95725e-49 0)
(-1.58226e-46 4.68342e-48 0)
(-3.54713e-45 1.05489e-46 0)
(-7.35844e-44 2.36306e-45 0)
(-1.53903e-42 4.89985e-44 0)
(-2.90335e-41 1.02321e-42 0)
(-5.64636e-40 1.92428e-41 0)
(-9.51204e-39 3.69819e-40 0)
(-1.71634e-37 5.95094e-39 0)
(-2.50897e-36 9.08779e-38 0)
(-4.20432e-35 3.84573e-37 0)
(-5.05619e-34 -3.47198e-35 0)
(-7.88649e-33 -2.27784e-33 0)
(-6.63875e-32 -8.46665e-32 0)
(-9.18362e-31 -2.35764e-30 0)
(-2.283e-32 9.60763e-31 0)
(-2.64369e-32 4.75341e-32 0)
(-2.19243e-33 -2.72769e-33 0)
(-3.8701e-34 -2.95911e-34 0)
(-2.9304e-35 -3.84674e-35 0)
(-3.16095e-36 -2.57089e-36 0)
(-2.1754e-37 -2.1075e-37 0)
(-1.78679e-38 -1.26993e-38 0)
(-1.11753e-39 -8.581e-40 0)
(-7.63287e-41 -4.77278e-41 0)
(-4.35937e-42 -2.81072e-42 0)
(-2.59132e-43 -1.44716e-43 0)
(-1.35982e-44 -7.63075e-45 0)
(-7.22703e-46 -3.6491e-46 0)
(-3.50573e-47 -1.75252e-47 0)
(-1.69521e-48 -7.8144e-49 0)
(-7.64344e-50 -3.45875e-50 0)
(-3.40354e-51 -1.4436e-51 0)
(-1.43332e-52 -5.94088e-53 0)
(-5.92936e-54 -2.33051e-54 0)
(-2.34241e-55 -8.99249e-56 0)
(-9.0672e-57 -3.33725e-57 0)
(-3.27727e-58 -1.20497e-58 0)
(2.77785e-58 4.87111e-59 0)
(8.30027e-57 1.55196e-57 0)
(2.29073e-55 4.44147e-56 0)
(6.19423e-54 1.22585e-54 0)
(1.60663e-52 3.31514e-53 0)
(4.09439e-51 8.59975e-52 0)
(9.93081e-50 2.19184e-50 0)
(2.37777e-48 5.31694e-49 0)
(5.35746e-47 1.27321e-47 0)
(1.2011e-45 2.86911e-46 0)
(2.49178e-44 6.43296e-45 0)
(5.21217e-43 1.33463e-43 0)
(9.83367e-42 2.79082e-42 0)
(1.91278e-40 5.2561e-41 0)
(3.22296e-39 1.01508e-39 0)
(5.81719e-38 1.65859e-38 0)
(8.50656e-37 2.68715e-37 0)
(1.4261e-35 2.15213e-36 0)
(1.71609e-34 -4.15629e-35 0)
(2.67835e-33 -4.02406e-33 0)
(2.25686e-32 -1.56319e-31 0)
(3.12343e-31 -4.46324e-30 0)
(-9.16316e-33 3.73464e-31 0)
(3.5277e-33 2.09031e-32 0)
(1.80165e-34 5.41162e-34 0)
(1.60089e-37 7.53655e-38 0)
(-8.7588e-37 -2.20448e-36 0)
(-1.99437e-37 -1.82609e-37 0)
(-1.7146e-38 -1.58274e-38 0)
(-1.68798e-39 -1.00004e-39 0)
(-1.15435e-40 -6.84293e-41 0)
(-8.52789e-42 -3.90744e-42 0)
(-5.10008e-43 -2.32116e-43 0)
(-3.15794e-44 -1.21736e-44 0)
(-1.70089e-45 -6.46648e-46 0)
(-9.24804e-47 -3.13547e-47 0)
(-4.55394e-48 -1.51561e-48 0)
(-2.23026e-49 -6.83156e-50 0)
(-1.0139e-50 -3.04124e-51 0)
(-4.54428e-52 -1.28046e-52 0)
(-1.92086e-53 -5.2961e-54 0)
(-7.96474e-55 -2.09193e-55 0)
(-3.14786e-56 -8.09705e-57 0)
(-1.21615e-57 -3.01504e-58 0)
(-1.55838e-59 -1.16141e-59 0)
(8.64239e-58 -1.88078e-59 0)
(2.47759e-56 -5.3869e-58 0)
(6.83764e-55 -1.54133e-56 0)
(1.84901e-53 -4.25377e-55 0)
(4.79606e-52 -1.15029e-53 0)
(1.2223e-50 -2.98377e-52 0)
(2.96473e-49 -7.60446e-51 0)
(7.09889e-48 -1.8446e-49 0)
(1.59953e-46 -4.41702e-48 0)