/*--------------------------------*- C++ -*----------------------------------*\
| =========                 |                                                 |
| \\      /  F ield         | OpenFOAM: The Open Source CFD Toolbox           |
|  \\    /   O peration     | Version:  2.4.0                                 |
|   \\  /    A nd           | Web:      www.OpenFOAM.org                      |
|    \\/     M anipulation  |                                                 |
\*---------------------------------------------------------------------------*/
FoamFile
{
    version     2.0;
    format      ascii;
    class       volVectorField;
    location    "0.75";
    object      U;
}
// * * * * * * * * * * * * * * * * * * * * * * * * * * * * * * * * * * * * * //

dimensions      [0 1 -1 0 0 0 0];

internalField   nonuniform List<vector> 
1915
(
(8.68519e-41 -1.77746e-38 0)
(1.67499e-39 -2.94102e-39 0)
(7.7764e-40 -1.46032e-37 0)
(1.6044e-38 -2.41918e-38 0)
(5.48256e-39 -1.09941e-36 0)
(1.25265e-37 -1.81842e-37 0)
(3.5365e-38 -7.91713e-36 0)
(9.27315e-37 -1.30575e-36 0)
(2.05702e-37 -5.34628e-35 0)
(6.55537e-36 -8.81247e-36 0)
(9.97853e-37 -3.46427e-34 0)
(4.31846e-35 -5.68528e-35 0)
(3.71226e-36 -2.0417e-33 0)
(2.7081e-34 -3.35855e-34 0)
(3.81145e-36 -1.18158e-32 0)
(1.50973e-33 -1.91927e-33 0)
(-5.26005e-35 -5.69678e-32 0)
(8.03323e-33 -9.36309e-33 0)
(-4.59247e-34 -3.05502e-31 0)
(3.14667e-32 -4.73467e-32 0)
(-8.33038e-36 -2.67394e-36 0)
(-7.59162e-35 -1.8349e-35 0)
(-3.85249e-34 -1.34284e-34 0)
(-3.91631e-33 -1.025e-34 0)
(-3.59955e-33 2.58417e-34 0)
(3.59955e-33 2.58417e-34 0)
(3.91631e-33 -1.025e-34 0)
(3.85254e-34 -1.34282e-34 0)
(7.6014e-35 -1.83537e-35 0)
(8.58553e-36 -2.90702e-36 0)
(1.17745e-36 -3.30685e-37 0)
(1.25559e-37 -3.95128e-38 0)
(-1.16263e-42 -7.96415e-39 0)
(-1.25572e-37 -3.95162e-38 0)
(-1.1776e-36 -3.30723e-37 0)
(-8.58697e-36 -2.90742e-36 0)
(-7.60286e-35 -1.83578e-35 0)
(-3.85382e-34 -1.34322e-34 0)
(-3.91751e-33 -1.02834e-34 0)
(-3.60827e-33 2.5547e-34 0)
(3.52235e-33 2.39728e-34 0)
(3.52235e-33 -2.39728e-34 0)
(-3.60827e-33 -2.5547e-34 0)
(-3.91751e-33 1.02834e-34 0)
(-3.85382e-34 1.34322e-34 0)
(-7.60287e-35 1.83577e-35 0)
(-8.58842e-36 2.90701e-36 0)
(-1.19226e-36 3.26669e-37 0)
(-2.55286e-37 -3.66556e-40 0)
(-1.20508e-36 -3.30277e-37 0)
(-8.70086e-36 -2.94211e-36 0)
(-7.70779e-35 -1.86488e-35 0)
(-3.92776e-34 -1.36894e-34 0)
(-3.98481e-33 -1.18241e-34 0)
(-3.91631e-33 1.39876e-34 0)
(-1.23926e-39 2.74457e-34 0)
(3.9163e-33 1.39873e-34 0)
(3.9847e-33 -1.18271e-34 0)
(3.91571e-34 -1.36956e-34 0)
(7.11995e-35 -1.67674e-35 0)
(-3.00034e-36 1.21194e-36 0)
(-2.42939e-35 9.74531e-36 0)
(-1.20445e-34 7.12322e-35 0)
(-7.87112e-34 5.42196e-35 0)
(-6.88223e-34 -1.36855e-34 0)
(6.88223e-34 -1.36855e-34 0)
(7.87112e-34 5.42196e-35 0)
(1.20448e-34 7.12319e-35 0)
(2.43381e-35 9.75603e-36 0)
(3.18282e-36 1.4666e-36 0)
(4.4981e-37 1.60419e-37 0)
(5.12169e-38 1.82421e-38 0)
(-5.33488e-43 3.53875e-39 0)
(-5.12228e-38 1.82435e-38 0)
(-4.49873e-37 1.60435e-37 0)
(-3.18345e-36 1.46678e-36 0)
(-2.43441e-35 9.75782e-36 0)
(-1.20501e-34 7.12501e-35 0)
(-7.87568e-34 5.43818e-35 0)
(-6.91458e-34 -1.3537e-34 0)
(6.63429e-34 -1.26936e-34 0)
(6.63429e-34 1.26936e-34 0)
(-6.91458e-34 1.3537e-34 0)
(-7.87568e-34 -5.43818e-35 0)
(-1.20501e-34 -7.12501e-35 0)
(-2.43442e-35 -9.7578e-36 0)
(-3.18408e-36 -1.4666e-36 0)
(-4.56012e-37 -1.58635e-37 0)
(-1.04241e-37 1.57486e-40 0)
(-4.61348e-37 1.60244e-37 0)
(-3.22983e-36 1.48288e-36 0)
(-2.47416e-35 9.89996e-36 0)
(-1.23228e-34 7.25545e-35 0)
(-8.08671e-34 6.26529e-35 0)
(-7.87112e-34 -7.4056e-35 0)
(-5.87969e-40 -1.45433e-34 0)
(7.87106e-34 -7.40548e-35 0)
(8.08622e-34 6.2661e-35 0)
(1.22733e-34 7.24792e-35 0)
(2.21372e-35 7.44279e-36 0)
(-8.55714e-37 4.59392e-37 0)
(-5.83399e-36 3.51018e-36 0)
(-2.20053e-35 2.05286e-35 0)
(-1.12054e-34 1.44424e-35 0)
(-9.51407e-35 -3.91208e-35 0)
(9.51407e-35 -3.91208e-35 0)
(1.12054e-34 1.44424e-35 0)
(2.20056e-35 2.05283e-35 0)
(5.84137e-36 3.51382e-36 0)
(8.70953e-37 5.60781e-37 0)
(1.37006e-37 6.67961e-38 0)
(1.667e-38 7.88529e-39 0)
(-2.05187e-43 1.60205e-39 0)
(-1.66723e-38 7.88596e-39 0)
(-1.37029e-37 6.68036e-38 0)
(-8.71176e-37 5.60862e-37 0)
(-5.84346e-36 3.51463e-36 0)
(-2.20227e-35 2.05362e-35 0)
(-1.12193e-34 1.451e-35 0)
(-9.60288e-35 -3.85522e-35 0)
(8.91602e-35 -3.55394e-35 0)
(8.91602e-35 3.55394e-35 0)
(-9.60288e-35 3.85522e-35 0)
(-1.12193e-34 -1.451e-35 0)
(-2.20227e-35 -2.05362e-35 0)
(-5.84348e-36 -3.51462e-36 0)
(-8.71402e-37 -5.6078e-37 0)
(-1.39142e-37 -6.59883e-38 0)
(-3.39851e-38 7.29946e-41 0)
(-1.40965e-37 6.67149e-38 0)
(-8.86199e-37 5.67777e-37 0)
(-5.9634e-36 3.57352e-36 0)
(-2.27545e-35 2.10294e-35 0)
(-1.17146e-34 1.74552e-35 0)
(-1.12054e-34 -2.16052e-35 0)
(-1.24178e-40 -4.2194e-35 0)
(1.12053e-34 -2.16046e-35 0)
(1.17138e-34 1.74592e-35 0)
(2.26781e-35 2.10062e-35 0)
(5.5504e-36 2.68191e-36 0)
(-1.73136e-37 1.44321e-37 0)
(-1.01741e-36 1.02442e-36 0)
(-2.93783e-36 5.55529e-36 0)
(-1.2212e-35 3.79787e-36 0)
(-1.0147e-35 -1.05821e-35 0)
(1.0147e-35 -1.05821e-35 0)
(1.2212e-35 3.79787e-36 0)
(2.93779e-36 5.55528e-36 0)
(1.01802e-36 1.02607e-36 0)
(1.71043e-37 1.77403e-37 0)
(2.92111e-38 2.2439e-38 0)
(3.75866e-39 2.79517e-39 0)
(-5.27131e-44 5.91126e-40 0)
(-3.75923e-39 2.79544e-39 0)
(-2.92169e-38 2.24419e-38 0)
(-1.71097e-37 1.77434e-37 0)
(-1.01851e-36 1.02637e-36 0)
(-2.94166e-36 5.55808e-36 0)
(-1.22417e-35 3.8206e-36 0)
(-1.03219e-35 -1.0402e-35 0)
(9.09931e-36 -9.53335e-36 0)
(9.09931e-36 9.53335e-36 0)
(-1.03219e-35 1.0402e-35 0)
(-1.22417e-35 -3.8206e-36 0)
(-2.94166e-36 -5.55808e-36 0)
(-1.01852e-36 -1.02636e-36 0)
(-1.71152e-37 -1.77402e-37 0)
(-2.97132e-38 -2.21408e-38 0)
(-7.67353e-39 2.77791e-41 0)
(-3.01393e-38 2.2408e-38 0)
(-1.74473e-37 1.79869e-37 0)
(-1.04387e-36 1.046e-36 0)
(-3.08299e-36 5.71275e-36 0)
(-1.30848e-35 4.66647e-36 0)
(-1.2212e-35 -5.89547e-36 0)
(-1.70663e-41 -1.14709e-35 0)
(1.22119e-35 -5.89534e-36 0)
(1.30843e-35 4.66705e-36 0)
(3.07764e-36 5.70181e-36 0)
(1.00606e-36 7.74376e-37 0)
(-3.21005e-38 3.12013e-38 0)
(-1.63622e-37 2.11687e-37 0)
(-3.26494e-37 1.07225e-36 0)
(-9.85966e-37 7.11742e-37 0)
(-7.97503e-37 -2.04076e-36 0)
(7.97503e-37 -2.04076e-36 0)
(9.85964e-37 7.11743e-37 0)
(3.26462e-37 1.07226e-36 0)
(1.63524e-37 2.12137e-37 0)
(3.04736e-38 3.87387e-38 0)
(5.627e-39 5.14451e-39 0)
(7.57902e-40 6.65182e-40 0)
(-1.19053e-44 1.45115e-40 0)
(-7.58028e-40 6.65252e-40 0)
(-5.62826e-39 5.14527e-39 0)
(-3.04852e-38 3.87465e-38 0)
(-1.63627e-37 2.12211e-37 0)
(-3.27243e-37 1.07293e-36 0)
(-9.91695e-37 7.1696e-37 0)
(-8.28758e-37 -2.00136e-36 0)
(6.28248e-37 -1.82341e-36 0)
(6.28248e-37 1.82341e-36 0)
(-8.28758e-37 2.00136e-36 0)
(-9.91695e-37 -7.1696e-37 0)
(-3.27243e-37 -1.07293e-36 0)
(-1.63628e-37 -2.1221e-37 0)
(-3.0497e-38 -3.87386e-38 0)
(-5.73218e-39 -5.07128e-39 0)
(-1.54932e-39 6.96727e-42 0)
(-5.82093e-39 5.13671e-39 0)
(-3.11635e-38 3.93228e-38 0)
(-1.68475e-37 2.16688e-37 0)
(-3.51986e-37 1.10645e-36 0)
(-1.12396e-36 8.89693e-37 0)
(-9.85965e-37 -1.14645e-36 0)
(-7.04332e-43 -2.22333e-36 0)
(9.85966e-37 -1.14644e-36 0)
(1.1241e-36 8.89701e-37 0)
(3.5306e-37 1.1034e-36 0)
(1.70558e-37 1.57883e-37 0)
(-5.27883e-39 6.09394e-39 0)
(-2.40121e-38 3.96212e-38 0)
(-3.21891e-38 1.92882e-37 0)
(-4.92455e-38 1.25838e-37 0)
(-3.70064e-38 -3.67314e-37 0)
(3.70064e-38 -3.67314e-37 0)
(4.92452e-38 1.25839e-37 0)
(3.2182e-38 1.9289e-37 0)
(2.39669e-38 3.97524e-38 0)
(4.85674e-39 7.62433e-39 0)
(9.51475e-40 1.05166e-39 0)
(1.32964e-40 1.40565e-40 0)
(-2.29344e-45 3.14489e-41 0)
(-1.32988e-40 1.40581e-40 0)
(-9.51712e-40 1.05183e-39 0)
(-4.85888e-39 7.62606e-39 0)
(-2.39855e-38 3.97683e-38 0)
(-3.23192e-38 1.93031e-37 0)
(-5.02155e-38 1.26907e-37 0)
(-4.20004e-38 -3.59549e-37 0)
(1.20692e-38 -3.26494e-37 0)
(1.20692e-38 3.26494e-37 0)
(-4.20004e-38 3.59549e-37 0)
(-5.02155e-38 -1.26907e-37 0)
(-3.23192e-38 -1.93031e-37 0)
(-2.39857e-38 -3.97681e-38 0)
(-4.86105e-39 -7.62432e-39 0)
(-9.70491e-40 -1.03578e-39 0)
(-2.72113e-40 1.53862e-42 0)
(-9.86461e-40 1.04993e-39 0)
(-4.97755e-39 7.7473e-39 0)
(-2.48002e-38 4.0679e-38 0)
(-3.62057e-38 1.99588e-37 0)
(-6.91884e-38 1.58894e-37 0)
(-4.92452e-38 -2.07479e-37 0)
(2.85126e-43 -4.0131e-37 0)
(4.92495e-38 -2.07479e-37 0)
(6.92439e-38 1.58866e-37 0)
(3.66415e-38 1.98838e-37 0)
(2.62084e-38 2.91477e-38 0)
(-6.78069e-40 9.84632e-40 0)
(-3.41443e-39 6.34864e-39 0)
(-3.0559e-39 3.06744e-38 0)
(1.64539e-39 1.97014e-38 0)
(1.90158e-39 -5.84963e-38 0)
(-1.90113e-39 -5.84959e-38 0)
(-1.64273e-39 1.97059e-38 0)
(3.07186e-39 3.07064e-38 0)
(3.41686e-39 6.56125e-39 0)
(7.34795e-40 1.30764e-39 0)
(1.50592e-40 1.86176e-40 0)
(2.16414e-41 2.55502e-41 0)
(-4.02933e-46 5.83851e-42 0)
(-2.16456e-41 2.55533e-41 0)
(-1.50633e-40 1.86209e-40 0)
(-7.35159e-40 1.30797e-39 0)
(-3.41996e-39 6.5642e-39 0)
(-3.09423e-39 3.0732e-38 0)
(1.48901e-39 1.9895e-38 0)
(1.14401e-39 -5.71626e-38 0)
(-5.47176e-39 -5.17455e-38 0)
(-5.47176e-39 5.17455e-38 0)
(1.14401e-39 5.71626e-38 0)
(1.48901e-39 -1.9895e-38 0)
(-3.09423e-39 -3.07319e-38 0)
(-3.42e-39 -6.56417e-39 0)
(-7.35527e-40 -1.30764e-39 0)
(-1.53764e-40 -1.83228e-40 0)
(-4.43312e-41 2.90051e-43 0)
(-1.56416e-40 1.85851e-40 0)
(-7.54431e-40 1.32992e-39 0)
(-3.54827e-39 6.72476e-39 0)
(-3.6753e-39 3.18505e-38 0)
(-1.17069e-39 2.5123e-38 0)
(1.64274e-39 -3.32066e-38 0)
(1.09381e-43 -6.40792e-38 0)
(-1.64147e-39 -3.32071e-38 0)
(1.18386e-39 2.51139e-38 0)
(3.77508e-39 3.17e-38 0)
(3.89421e-39 4.74785e-39 0)
(2.56635e-39 8.61204e-40 0)
(-6.30105e-41 -5.36474e-40 0)
(-1.31216e-40 4.39716e-39 0)
(8.84789e-40 2.9071e-39 0)
(7.8441e-40 -8.83423e-39 0)
(-7.80844e-40 -8.8314e-39 0)
(-8.60854e-40 2.93784e-39 0)
(3.00216e-40 4.63282e-39 0)
(4.65011e-40 1.01615e-39 0)
(1.04301e-40 2.08979e-40 0)
(2.20835e-41 3.05023e-41 0)
(3.24473e-42 4.27789e-42 0)
(-6.43586e-47 9.94323e-43 0)
(-3.24539e-42 4.27844e-42 0)
(-2.20899e-41 3.0508e-41 0)
(-1.04357e-40 2.09035e-40 0)
(-4.65483e-40 1.01665e-39 0)
(-3.0357e-40 4.6371e-39 0)
(8.38326e-40 2.96887e-39 0)
(6.73529e-40 -8.61784e-39 0)
(-1.26876e-39 -7.78395e-39 0)
(-1.26876e-39 7.78395e-39 0)
(6.73529e-40 8.61784e-39 0)
(8.38326e-40 -2.96887e-39 0)
(-3.03571e-40 -4.6371e-39 0)
(-4.6549e-40 -1.01665e-39 0)
(-1.04415e-40 -2.08978e-40 0)
(-2.25684e-41 -3.00001e-41 0)
(-6.65191e-42 5.00284e-44 0)
(-2.29726e-41 3.0446e-41 0)
(-1.07242e-40 2.12698e-40 0)
(-4.84222e-40 1.04287e-39 0)
(-3.8531e-40 4.81508e-39 0)
(4.80974e-40 3.77176e-39 0)
(8.6089e-40 -5.03217e-39 0)
(2.4477e-44 -9.69217e-39 0)
(-8.60629e-40 -5.03233e-39 0)
(-4.78543e-40 3.76963e-39 0)
(4.03109e-40 4.78784e-39 0)
(5.46961e-40 7.26583e-40 0)
(5.09119e-38 -1.15299e-38 0)
(5.49224e-39 -1.06047e-38 0)
(1.54063e-39 -8.55012e-40 0)
(3.48933e-40 2.38305e-40 0)
(1.60368e-40 -1.25908e-39 0)
(-1.3478e-40 -1.24445e-39 0)
(-1.5529e-40 4.08688e-40 0)
(3.14358e-41 6.51778e-40 0)
(6.13236e-41 1.46269e-40 0)
(1.41505e-41 3.08377e-41 0)
(3.06906e-42 4.59487e-42 0)
(4.58751e-43 6.55843e-43 0)
(-9.54075e-48 1.54635e-43 0)
(-4.58848e-43 6.55931e-43 0)
(-3.06999e-42 4.59579e-42 0)
(-1.41586e-41 3.08466e-41 0)
(-6.13899e-41 1.46348e-40 0)
(-3.1892e-41 6.52443e-40 0)
(1.5237e-40 4.13477e-40 0)
(1.22465e-40 -1.21153e-39 0)
(-2.01551e-40 -1.09209e-39 0)
(-2.01551e-40 1.09209e-39 0)
(1.22465e-40 1.21153e-39 0)
(1.5237e-40 -4.13477e-40 0)
(-3.18921e-41 -6.52443e-40 0)
(-6.13909e-41 -1.46347e-40 0)
(-1.41669e-41 -3.08377e-41 0)
(-3.13869e-42 -4.51675e-42 0)
(-9.41091e-43 7.86266e-45 0)
(-3.19657e-42 4.58602e-42 0)
(-1.45658e-41 3.14066e-41 0)
(-6.39858e-41 1.50285e-40 0)
(-4.29048e-41 6.78609e-40 0)
(1.05674e-40 5.28253e-40 0)
(1.55508e-40 -7.10688e-40 0)
(4.47865e-45 -1.36656e-39 0)
(-1.55463e-40 -7.10723e-40 0)
(-1.0528e-40 5.27852e-40 0)
(4.57075e-41 6.74192e-40 0)
(7.39244e-41 1.03542e-40 0)
(7.93796e-37 1.62447e-37 0)
(9.47099e-38 -6.76548e-38 0)
(1.29435e-38 -9.13554e-39 0)
(1.34924e-39 -8.35909e-40 0)
(1.53272e-40 -2.44638e-40 0)
(-7.02194e-42 -1.7309e-40 0)
(-2.094e-41 5.38378e-41 0)
(3.54283e-42 8.73687e-41 0)
(7.73895e-42 1.99689e-41 0)
(1.82288e-42 4.29102e-42 0)
(4.02548e-43 6.49698e-43 0)
(6.10295e-44 9.39943e-44 0)
(-1.15066e-48 2.24102e-44 0)
(-6.10404e-44 9.40082e-44 0)
(-4.02639e-43 6.49845e-43 0)
(-1.82348e-42 4.2925e-42 0)
(-7.74118e-42 1.99829e-41 0)
(-3.51859e-42 8.75e-41 0)
(2.15922e-41 5.49952e-41 0)
(1.73155e-41 -1.62373e-40 0)
(-2.73449e-41 -1.46125e-40 0)
(-2.73449e-41 1.46125e-40 0)
(1.73155e-41 1.62373e-40 0)
(2.15922e-41 -5.49952e-41 0)
(-3.5186e-42 -8.74999e-41 0)
(-7.74131e-42 -1.99828e-41 0)
(-1.82461e-42 -4.29119e-42 0)
(-4.11895e-43 -6.38388e-43 0)
(-1.25263e-43 1.14875e-45 0)
(-4.19677e-43 6.48416e-43 0)
(-1.87758e-42 4.37258e-42 0)
(-8.0807e-42 2.05383e-41 0)
(-4.9292e-42 9.11302e-41 0)
(1.57458e-41 7.05816e-41 0)
(2.2004e-41 -9.55993e-41 0)
(7.1307e-46 -1.83583e-40 0)
(-2.19971e-41 -9.56056e-41 0)
(-1.56883e-41 7.05153e-41 0)
(5.32716e-42 9.04675e-41 0)
(9.49015e-42 1.40257e-41 0)
(1.0494e-33 -1.08709e-30 0)
(1.83787e-31 -1.80251e-31 0)
(1.90724e-32 -1.13799e-29 0)
(-3.22201e-32 -1.28365e-30 0)
(1.9508e-31 1.46792e-30 0)
(-2.10422e-31 1.75119e-31 0)
(1.90801e-32 1.30121e-29 0)
(1.36628e-32 1.48692e-30 0)
(1.24034e-33 1.31833e-30 0)
(2.04769e-31 2.22596e-31 0)
(6.60944e-35 8.1437e-31 0)
(-3.0039e-32 1.45934e-31 0)
(6.1881e-35 2.86081e-30 0)
(-4.15936e-31 4.89149e-31 0)
(1.03357e-34 2.42086e-29 0)
(-7.12469e-31 3.01041e-30 0)
(3.13902e-36 4.49168e-29 0)
(-2.16988e-32 5.35607e-30 0)
(-1.03043e-34 2.55146e-29 0)
(7.10005e-31 3.15795e-30 0)
(4.41851e-31 5.03624e-31 0)
(6.21887e-32 1.01295e-31 0)
(9.11532e-33 1.3243e-32 0)
(9.96323e-34 1.88023e-33 0)
(1.10009e-34 5.42355e-34 0)
(5.19216e-36 3.01869e-33 0)
(-5.35878e-35 2.81579e-32 0)
(-5.53605e-34 2.04058e-31 0)
(-4.11325e-33 1.77572e-30 0)
(-3.11851e-32 8.69736e-30 0)
(-2.75759e-32 8.14134e-29 0)
(2.75762e-32 8.14134e-29 0)
(3.11797e-32 8.69734e-30 0)
(3.90054e-33 1.77551e-30 0)
(-3.83631e-33 2.0273e-31 0)
(-6.60863e-32 1.84065e-32 0)
(-6.76785e-31 2.99518e-33 0)
(-6.61405e-32 1.00835e-32 0)
(-4.38992e-33 1.35993e-33 0)
(-2.12323e-34 2.13982e-34 0)
(-2.45973e-36 2.54923e-35 0)
(2.30624e-35 1.44138e-35 0)
(1.16148e-34 6.16041e-35 0)
(2.85601e-32 -1.89245e-32 0)
(5.34691e-33 -1.95281e-33 0)
(7.06888e-34 -2.01887e-34 0)
(9.538e-35 -2.01073e-35 0)
(-6.42819e-33 -1.1129e-31 0)
(-1.08476e-33 -7.59167e-33 0)
(-1.40937e-34 -3.7751e-34 0)
(-1.58703e-35 -1.01884e-35 0)
(-4.44791e-32 1.57144e-32 0)
(-7.31438e-33 1.09323e-33 0)
(-9.3964e-34 5.29524e-35 0)
(-1.04931e-34 9.64628e-37 0)
(1.89949e-33 1.30531e-31 0)
(4.99844e-34 8.98294e-33 0)
(8.29987e-35 4.5098e-34 0)
(1.51692e-35 1.22754e-35 0)
(3.58807e-32 2.47062e-32 0)
(6.75707e-33 2.12523e-33 0)
(9.23546e-34 1.60315e-34 0)
(1.25332e-34 1.16884e-35 0)
(-6.42452e-33 2.39933e-32 0)
(-1.3264e-33 3.03946e-33 0)
(-1.98138e-34 3.81881e-34 0)
(-2.83059e-35 4.35128e-35 0)
(-7.66261e-32 6.13111e-32 0)
(-1.46689e-32 6.119e-33 0)
(-2.04494e-33 5.90014e-34 0)
(-2.79538e-34 5.5661e-35 0)
(-1.27529e-31 2.80851e-31 0)
(-2.41642e-32 2.06139e-32 0)
(-3.3287e-33 1.16228e-33 0)
(-4.52135e-34 4.65176e-35 0)
(-3.83537e-33 4.80073e-31 0)
(-7.23231e-34 3.35077e-32 0)
(-9.90625e-35 1.6512e-33 0)
(-1.34122e-35 3.58771e-35 0)
(1.27026e-31 2.93277e-31 0)
(2.40673e-32 2.14027e-32 0)
(3.315e-33 1.1893e-33 0)
(4.50276e-34 4.53508e-35 0)
(8.13827e-32 6.22869e-32 0)
(1.5591e-32 6.11704e-33 0)
(2.17459e-33 5.76287e-34 0)
(2.97452e-34 5.31899e-35 0)
(1.31482e-32 1.67714e-32 0)
(2.66858e-33 2.13952e-33 0)
(3.94072e-34 2.69972e-34 0)
(5.57902e-35 3.08525e-35 0)
(2.01021e-33 2.48733e-33 0)
(4.35898e-34 3.5375e-34 0)
(6.73752e-35 4.85286e-35 0)
(9.93759e-36 5.8942e-36 0)
(2.28595e-34 3.91339e-34 0)
(5.18862e-35 6.03582e-35 0)
(8.27868e-36 8.85287e-36 0)
(1.25525e-36 1.13167e-36 0)
(-8.41476e-36 1.26362e-34 0)
(-2.82742e-36 2.59331e-35 0)
(-1.16375e-36 4.18651e-36 0)
(-2.13444e-37 6.21871e-37 0)
(-3.58153e-34 7.09882e-34 0)
(-9.06676e-35 1.56199e-34 0)
(-2.13514e-35 2.49654e-35 0)
(-3.54954e-36 3.75264e-36 0)
(-3.20711e-33 6.27562e-33 0)
(-7.90818e-34 1.30428e-33 0)
(-1.78178e-34 1.98287e-34 0)
(-2.87281e-35 2.86945e-35 0)
(-2.94316e-32 4.38195e-32 0)
(-6.84507e-33 8.20615e-33 0)
(-1.46998e-33 1.15594e-33 0)
(-2.27302e-34 1.56288e-34 0)
(-1.93614e-31 3.39516e-31 0)
(-4.30613e-32 5.61044e-32 0)
(-8.63197e-33 7.05597e-33 0)
(-1.27274e-33 8.74843e-34 0)
(-1.39293e-30 1.57376e-30 0)
(-2.65971e-31 1.87076e-31 0)
(-5.0373e-32 1.69195e-32 0)
(-7.00548e-33 1.38535e-33 0)
(-1.22587e-30 1.04111e-29 0)
(-2.29047e-31 9.63425e-31 0)
(-4.30523e-32 6.75674e-32 0)
(-5.93455e-33 3.38232e-33 0)
(1.22587e-30 1.04111e-29 0)
(2.29047e-31 9.63428e-31 0)
(4.30519e-32 6.75682e-32 0)
(5.93444e-33 3.38249e-33 0)
(1.39292e-30 1.57378e-30 0)
(2.65966e-31 1.87106e-31 0)
(5.03688e-32 1.69267e-32 0)
(7.00448e-33 1.38688e-33 0)
(1.93405e-31 3.39739e-31 0)
(4.29826e-32 5.6373e-32 0)
(8.5915e-33 7.11754e-33 0)
(1.26389e-33 8.874e-34 0)
(2.51077e-32 4.52211e-32 0)
(5.67328e-33 9.88775e-33 0)
(1.04929e-33 1.52244e-33 0)
(1.46478e-34 2.26002e-34 0)
(-6.20525e-32 1.65714e-32 0)
(-1.24474e-32 1.33355e-32 0)
(-3.04887e-33 2.45505e-33 0)
(-5.02455e-34 4.36035e-34 0)
(-6.69688e-31 7.04479e-34 0)
(-9.62302e-32 1.55331e-34 0)
(-2.20035e-32 2.4972e-35 0)
(-3.244e-33 4.35568e-36 0)
(-6.52251e-32 -1.02156e-32 0)
(-1.3229e-32 -1.20124e-32 0)
(-3.22416e-33 -2.25226e-33 0)
(-5.28122e-34 -4.00565e-34 0)
(-4.32034e-33 -1.39335e-33 0)
(-1.16925e-33 -1.67743e-33 0)
(-4.13267e-34 -3.52323e-34 0)
(-5.22217e-35 -7.36359e-36 0)
(-2.0631e-34 -2.18764e-34 0)
(-6.2454e-35 -2.50656e-34 0)
(3.28779e-35 5.07078e-35 0)
(3.02149e-34 5.13179e-34 0)
(1.56411e-35 -3.78474e-36 0)
(1.2842e-34 1.10529e-34 0)
(6.42415e-34 9.13521e-34 0)
(3.01437e-33 4.51115e-33 0)
(1.66656e-34 9.85125e-35 0)
(1.11841e-33 7.31089e-34 0)
(5.86576e-33 5.08726e-33 0)
(3.10982e-32 2.67257e-32 0)
(8.93685e-34 5.42821e-34 0)
(6.44295e-33 4.05593e-33 0)
(3.81532e-32 2.9733e-32 0)
(2.35891e-31 1.64205e-31 0)
(1.0706e-35 -1.66733e-36 0)
(1.12046e-36 -6.34774e-38 0)
(1.06819e-37 -2.64586e-39 0)
(9.92832e-39 -1.31173e-40 0)
(8.66422e-40 -2.56287e-41 0)
(7.13773e-41 -1.61155e-41 0)
(3.83916e-42 4.83464e-42 0)
(7.40645e-43 7.96436e-42 0)
(7.16788e-43 1.85267e-42 0)
(1.65709e-43 4.08336e-43 0)
(3.66856e-44 6.30173e-44 0)
(5.60431e-45 9.29392e-45 0)
(6.71366e-49 2.24943e-45 0)
(-5.5935e-45 9.29554e-45 0)
(-3.65215e-44 6.30347e-44 0)
(-1.63306e-43 4.08515e-43 0)
(-6.83185e-43 1.85439e-42 0)
(-2.86732e-43 7.98067e-42 0)
(2.00978e-42 4.98021e-42 0)
(1.60837e-42 -1.48048e-41 0)
(-2.49708e-42 -1.33051e-41 0)
(-2.49708e-42 1.33051e-41 0)
(1.60837e-42 1.48048e-41 0)
(2.00978e-42 -4.98021e-42 0)
(-2.86733e-43 -7.98067e-42 0)
(-6.83197e-43 -1.85438e-42 0)
(-1.63411e-43 -4.08381e-43 0)
(-3.73774e-44 -6.1884e-44 0)
(-1.14833e-44 1.16761e-46 0)
(-3.80957e-44 6.2889e-44 0)
(-1.6826e-43 4.16408e-43 0)
(-7.13919e-43 1.90809e-42 0)
(-4.12569e-43 8.32491e-42 0)
(1.49644e-42 6.41578e-42 0)
(2.04715e-42 -8.75087e-42 0)
(7.50475e-47 -1.67782e-41 0)
(-2.04644e-42 -8.7516e-42 0)
(-1.49068e-42 6.40847e-42 0)
(4.52314e-43 8.25781e-42 0)
(8.58793e-43 1.28424e-42 0)
(-1.4092e-36 5.91472e-37 0)
(-9.8765e-38 1.06674e-37 0)
(-4.80704e-39 1.02406e-38 0)
(1.77728e-41 7.9645e-40 0)
(4.03684e-41 5.29869e-41 0)
(6.686e-42 2.03731e-42 0)
(6.63319e-43 5.65955e-43 0)
(1.03869e-43 6.57993e-43 0)
(5.67136e-44 1.53259e-43 0)
(1.25276e-44 3.40225e-44 0)
(2.74788e-45 5.29481e-45 0)
(4.21693e-46 7.85421e-46 0)
(3.12586e-49 1.91146e-46 0)
(-4.17422e-46 7.85984e-46 0)
(-2.69294e-45 5.30062e-45 0)
(-1.18503e-44 3.40689e-44 0)
(-4.89112e-44 1.53396e-43 0)
(-1.97781e-44 6.52766e-43 0)
(1.46418e-43 4.04978e-43 0)
(1.16916e-43 -1.21026e-42 0)
(-1.80795e-43 -1.08641e-42 0)
(-1.80795e-43 1.08641e-42 0)
(1.16916e-43 1.21026e-42 0)
(1.46418e-43 -4.04978e-43 0)
(-1.97782e-44 -6.52766e-43 0)
(-4.89121e-44 -1.53395e-43 0)
(-1.18583e-44 -3.40575e-44 0)
(-2.75762e-45 -5.2028e-45 0)
(-8.5748e-46 9.9528e-48 0)
(-2.81179e-45 5.28819e-45 0)
(-1.22196e-44 3.47356e-44 0)
(-5.11719e-44 1.57907e-43 0)
(-2.88638e-44 6.81428e-43 0)
(1.09846e-43 5.23433e-43 0)
(1.49175e-43 -7.16972e-43 0)
(6.29995e-48 -1.37365e-42 0)
(-1.49117e-43 -7.17041e-43 0)
(-1.09391e-43 5.2276e-43 0)
(3.19671e-44 6.7553e-43 0)
(6.23868e-44 1.05848e-43 0)
(-9.53932e-36 -1.81948e-37 0)
(-7.25518e-37 -2.66325e-38 0)
(-4.7203e-38 -2.75833e-39 0)
(-2.1218e-39 -2.44202e-40 0)
(-7.99201e-42 -2.06232e-41 0)
(1.51812e-41 -1.71772e-42 0)
(2.3964e-42 -9.55454e-44 0)
(2.8492e-43 3.89061e-44 0)
(3.16163e-44 1.07876e-44 0)
(3.41832e-45 2.5302e-45 0)
(4.13095e-46 4.02112e-46 0)
(4.8157e-47 6.04796e-47 0)
(1.26587e-48 1.4871e-47 0)
(-3.12147e-47 6.06867e-47 0)
(-2.00579e-46 4.05255e-46 0)
(-8.76129e-46 2.57646e-45 0)
(-3.58309e-45 1.14524e-44 0)
(-1.42152e-45 4.8155e-44 0)
(1.07866e-44 2.97058e-44 0)
(8.59734e-45 -8.92451e-44 0)
(-1.3289e-44 -8.00238e-44 0)
(-1.3289e-44 8.00238e-44 0)
(8.59734e-45 8.92451e-44 0)
(1.07866e-44 -2.97058e-44 0)
(-1.42153e-45 -4.8155e-44 0)
(-3.58316e-45 -1.14523e-44 0)
(-8.76738e-46 -2.57557e-45 0)
(-2.05463e-46 -3.97637e-46 0)
(-6.43236e-47 7.79777e-49 0)
(-2.09544e-46 4.0428e-46 0)
(-9.03808e-46 2.62785e-45 0)
(-3.75125e-45 1.17967e-44 0)
(-2.09167e-45 5.0318e-44 0)
(8.11635e-45 3.85144e-44 0)
(1.0992e-44 -5.30083e-44 0)
(5.13745e-49 -1.01462e-43 0)
(-1.09874e-44 -5.30142e-44 0)
(-8.08058e-45 3.84588e-44 0)
(2.33232e-45 4.9852e-44 0)
(4.62848e-45 7.84897e-45 0)
(2.01239e-36 -7.25288e-37 0)
(2.5739e-37 -1.27501e-37 0)
(2.84215e-38 -1.23088e-38 0)
(3.05812e-39 -9.69453e-40 0)
(2.99775e-40 -6.82869e-41 0)
(2.83936e-41 -4.36323e-42 0)
(2.51553e-42 -2.44519e-43 0)
(2.15369e-43 -8.20818e-45 0)
(1.77377e-44 4.92566e-46 0)
(1.43491e-45 2.01494e-46 0)
(1.17539e-46 3.34653e-47 0)
(9.76258e-48 4.94217e-48 0)
(5.30664e-49 1.16591e-48 0)
(-2.18246e-48 4.61085e-48 0)
(-1.41089e-47 3.06408e-47 0)
(-6.11179e-47 1.93597e-46 0)
(-2.47637e-46 8.55532e-46 0)
(-9.68599e-47 3.56696e-45 0)
(7.47062e-46 2.19041e-45 0)
(5.94325e-46 -6.60772e-45 0)
(-9.19452e-46 -5.9197e-45 0)
(-9.19452e-46 5.9197e-45 0)
(5.94325e-46 6.60772e-45 0)
(7.47062e-46 -2.19041e-45 0)
(-9.68605e-47 -3.56696e-45 0)
(-2.47642e-46 -8.55525e-46 0)
(-6.11617e-47 -1.93529e-46 0)
(-1.44593e-47 -3.00597e-47 0)
(-4.56017e-48 5.96091e-50 0)
(-1.47501e-47 3.0566e-47 0)
(-6.30785e-47 1.97496e-46 0)
(-2.59449e-46 8.81543e-46 0)
(-1.43481e-46 3.72929e-45 0)
(5.63149e-46 2.84723e-45 0)
(7.61521e-46 -3.93153e-45 0)
(3.91335e-50 -7.52104e-45 0)
(-7.61171e-46 -3.93202e-45 0)
(-5.60527e-46 2.84276e-45 0)
(1.60871e-46 3.69299e-45 0)
(3.22697e-46 5.84632e-46 0)
(1.35576e-35 8.56167e-37 0)
(1.40219e-36 6.83714e-38 0)
(1.31559e-37 6.16267e-39 0)
(1.212e-38 5.5133e-40 0)
(1.04469e-39 4.89764e-41 0)
(8.7722e-41 4.14047e-42 0)
(7.00184e-42 3.40094e-43 0)
(5.43273e-43 2.69226e-44 0)
(4.04626e-44 2.08972e-45 0)
(2.93162e-45 1.62286e-46 0)
(2.05529e-46 1.27452e-47 0)
(1.40644e-47 1.05609e-48 0)
(9.17107e-49 1.30179e-49 0)
(-9.52335e-50 3.32671e-49 0)
(-9.7204e-49 2.17804e-48 0)
(-4.20628e-48 1.36609e-47 0)
(-1.69242e-47 5.99058e-47 0)
(-6.55039e-48 2.47568e-46 0)
(5.1097e-47 1.51337e-46 0)
(4.05871e-47 -4.58441e-46 0)
(-6.28506e-47 -4.10344e-46 0)
(-6.28506e-47 4.10344e-46 0)
(4.05871e-47 4.58441e-46 0)
(5.1097e-47 -1.51337e-46 0)
(-6.55043e-48 -2.47568e-46 0)
(-1.69245e-47 -5.99052e-47 0)
(-4.20956e-48 -1.3656e-47 0)
(-9.99994e-49 -2.13608e-48 0)
(-3.16905e-49 4.30155e-51 0)
(-1.02026e-48 2.17245e-48 0)
(-4.34267e-48 1.39394e-47 0)
(-1.77401e-47 6.17525e-47 0)
(-9.75427e-48 2.59006e-46 0)
(3.85605e-47 1.97216e-46 0)
(5.2097e-47 -2.73285e-46 0)
(2.87744e-51 -5.22453e-46 0)
(-5.20716e-47 -2.73322e-46 0)
(-3.83729e-47 1.96882e-46 0)
(1.09834e-47 2.56364e-46 0)
(2.22342e-47 4.07705e-47 0)
(-3.21788e-36 4.50491e-36 0)
(-3.41737e-37 4.14909e-37 0)
(-3.28793e-38 3.78587e-38 0)
(-3.06889e-39 3.24875e-39 0)
(-2.67654e-40 2.71644e-40 0)
(-2.25847e-41 2.16048e-41 0)
(-1.80939e-42 1.66908e-42 0)
(-1.40313e-43 1.23746e-43 0)
(-1.04291e-44 8.91613e-45 0)
(-7.51407e-46 6.20627e-46 0)
(-5.21896e-47 4.20696e-47 0)
(-3.51823e-48 2.77195e-48 0)
(-2.30832e-49 1.81349e-49 0)
(-2.49339e-50 3.3911e-50 0)
(-6.53773e-50 1.52161e-49 0)
(-2.76573e-49 9.4577e-49 0)
(-1.10466e-48 4.12939e-48 0)
(-4.23205e-49 1.69508e-47 0)
(3.33706e-48 1.03234e-47 0)
(2.64657e-48 -3.13777e-47 0)
(-4.10265e-48 -2.80653e-47 0)
(-4.10265e-48 2.80653e-47 0)
(2.64657e-48 3.13777e-47 0)
(3.33706e-48 -1.03234e-47 0)
(-4.23207e-49 -1.69508e-47 0)
(-1.10468e-48 -4.12935e-48 0)
(-2.76723e-49 -9.45385e-49 0)
(-6.60863e-50 -1.48575e-49 0)
(-2.10496e-50 3.0178e-52 0)
(-6.74364e-50 1.51121e-49 0)
(-2.85558e-49 9.65152e-49 0)
(-1.15851e-48 4.25778e-48 0)
(-6.33461e-49 1.77419e-47 0)
(2.52096e-48 1.34815e-47 0)
(3.40315e-48 -1.87307e-47 0)
(2.00831e-52 -3.57927e-47 0)
(-3.4014e-48 -1.87334e-47 0)
(-2.50821e-48 1.34572e-47 0)
(7.1608e-49 1.75541e-47 0)
(1.46099e-48 2.80408e-48 0)
(-3.04901e-35 5.07764e-36 0)
(-3.15777e-36 4.40435e-37 0)
(-2.96815e-37 3.91122e-38 0)
(-2.72911e-38 3.31417e-39 0)
(-2.34796e-39 2.75158e-40 0)
(-1.9635e-40 2.17703e-41 0)
(-1.56071e-41 1.67449e-42 0)
(-1.2042e-42 1.2362e-43 0)
(-8.91421e-44 8.86959e-45 0)
(-6.40948e-45 6.14424e-46 0)
(-4.44845e-46 4.14149e-47 0)
(-3.00285e-47 2.70697e-48 0)
(-1.96504e-48 1.72625e-49 0)
(-1.25922e-49 1.21992e-50 0)
(-1.19262e-50 1.07125e-50 0)
(-1.8264e-50 6.25661e-50 0)
(-7.07099e-50 2.71689e-49 0)
(-2.68502e-50 1.10771e-48 0)
(2.13595e-49 6.72113e-49 0)
(1.69175e-49 -2.04978e-48 0)
(-2.6249e-49 -1.83207e-48 0)
(-2.6249e-49 1.83207e-48 0)
(1.69175e-49 2.04978e-48 0)
(2.13595e-49 -6.72113e-49 0)
(-2.68488e-50 -1.10771e-48 0)
(-7.06838e-50 -2.71685e-49 0)
(-1.78077e-50 -6.25049e-50 0)
(-4.26691e-51 -9.87227e-51 0)
(-1.36411e-51 2.02531e-53 0)
(-4.35456e-51 1.00427e-50 0)
(-1.838e-50 6.38227e-50 0)
(-7.41562e-50 2.80214e-49 0)
(-4.03646e-50 1.15996e-48 0)
(1.61487e-49 8.79567e-49 0)
(2.17862e-49 -1.22536e-48 0)
(1.35591e-53 -2.34045e-48 0)
(-2.17744e-49 -1.22555e-48 0)
(-1.60644e-49 8.77896e-49 0)
(4.5779e-50 1.14725e-48 0)
(9.40706e-50 1.84019e-49 0)
(-4.8983e-35 1.08835e-38 0)
(-5.05147e-36 -1.74577e-37 0)
(-4.72712e-37 -2.20157e-38 0)
(-4.33292e-38 -2.06292e-39 0)
(-3.71611e-39 -1.77048e-40 0)
(-3.10024e-40 -1.41797e-41 0)
(-2.45851e-41 -1.09632e-42 0)
(-1.89337e-42 -8.11922e-44 0)
(-1.39904e-43 -5.83779e-45 0)
(-1.00441e-44 -4.05123e-46 0)
(-6.961e-46 -2.73433e-47 0)
(-4.69311e-47 -1.789e-48 0)
(-3.06743e-48 -1.14005e-49 0)
(-1.95368e-49 -6.96794e-51 0)
(-1.23548e-50 2.25313e-52 0)
(-1.8346e-51 4.01317e-51 0)
(-4.40277e-51 1.74919e-50 0)
(-1.64454e-51 7.09348e-50 0)
(1.31787e-50 4.29052e-50 0)
(1.04246e-50 -1.31221e-49 0)
(-1.61894e-50 -1.17212e-49 0)
(-1.61894e-50 1.17212e-49 0)
(1.04246e-50 1.31221e-49 0)
(1.31789e-50 -4.29052e-50 0)
(-1.64207e-51 -7.09349e-50 0)
(-4.35982e-51 -1.74932e-50 0)
(-1.10459e-51 -4.03684e-51 0)
(-2.65569e-52 -6.39924e-52 0)
(-8.52142e-53 1.32075e-54 0)
(-2.71055e-52 6.51025e-52 0)
(-1.14032e-51 4.12244e-51 0)
(-4.57574e-51 1.80459e-50 0)
(-2.47953e-51 7.43067e-50 0)
(9.97167e-51 5.62494e-50 0)
(1.34445e-50 -7.85318e-50 0)
(8.78296e-55 -1.49945e-49 0)
(-1.34369e-50 -7.85447e-50 0)
(-9.91806e-51 5.61377e-50 0)
(2.82072e-51 7.347e-50 0)
(5.8344e-51 1.183e-50 0)
(-1.44799e-36 -4.72813e-36 0)
(-1.48987e-37 -7.40021e-37 0)
(-1.39088e-38 -7.78827e-38 0)
(-1.2727e-39 -6.96121e-39 0)
(-1.08962e-40 -5.8817e-40 0)
(-9.07805e-42 -4.68073e-41 0)
(-7.18932e-43 -3.60758e-42 0)
(-5.53066e-44 -2.66569e-43 0)
(-4.08235e-45 -1.91338e-44 0)
(-2.92822e-46 -1.32573e-45 0)
(-2.02762e-47 -8.93597e-47 0)
(-1.366e-48 -5.8393e-48 0)
(-8.92179e-50 -3.71756e-49 0)
(-5.68006e-51 -2.3011e-50 0)
(-3.67103e-52 -1.34971e-51 0)
(-8.81113e-53 1.69508e-52 0)
(-2.64227e-52 1.0809e-51 0)
(-9.8393e-53 4.37823e-51 0)
(7.95115e-52 2.64012e-51 0)
(6.28236e-52 -8.09719e-51 0)
(-9.76408e-52 -7.22837e-51 0)
(-9.76408e-52 7.22837e-51 0)
(6.28236e-52 8.0972e-51 0)
(7.95119e-52 -2.64013e-51 0)
(-9.83224e-53 -4.37849e-51 0)
(-2.62984e-52 -1.0856e-51 0)
(-6.69431e-53 -2.51304e-52 0)
(-1.61308e-53 -3.99784e-53 0)
(-5.19086e-54 7.84906e-56 0)
(-1.64648e-53 4.06784e-53 0)
(-6.91191e-53 2.56663e-52 0)
(-2.76089e-52 1.12012e-51 0)
(-1.49039e-52 4.58824e-51 0)
(6.02004e-52 3.4674e-51 0)
(8.1125e-52 -4.85134e-51 0)
(5.56454e-56 -9.25968e-51 0)
(-8.1078e-52 -4.85216e-51 0)
(-5.98688e-52 3.46023e-51 0)
(1.69993e-52 4.53523e-51 0)
(3.53739e-52 7.32987e-52 0)
(4.87812e-35 -3.43672e-37 0)
(5.03072e-36 -2.15654e-37 0)
(4.70772e-37 -2.60505e-38 0)
(4.31518e-38 -2.41696e-39 0)
(3.70092e-39 -2.06827e-40 0)
(3.08758e-40 -1.65493e-41 0)
(2.44848e-41 -1.27914e-42 0)
(1.88566e-42 -9.47197e-44 0)
(1.39335e-43 -6.81006e-45 0)
(1.00033e-44 -4.72577e-46 0)
(6.93273e-46 -3.18956e-47 0)
(4.67406e-47 -2.08686e-48 0)
(3.05498e-48 -1.33006e-49 0)
(1.94534e-49 -8.24329e-51 0)
(1.20458e-50 -4.95997e-52 0)
(7.23946e-52 -1.41224e-53 0)
(2.74928e-53 6.40771e-53 0)
(-3.23469e-54 2.64155e-52 0)
(4.66554e-53 1.58985e-52 0)
(3.67138e-53 -4.88507e-52 0)
(-5.71007e-53 -4.35901e-52 0)
(-5.70936e-53 4.35918e-52 0)
(3.6712e-53 4.88657e-52 0)
(4.65089e-53 -1.58868e-52 0)
(-5.71245e-54 -2.64238e-52 0)
(-1.53827e-53 -6.58338e-53 0)
(-3.92789e-54 -1.5275e-53 0)
(-9.54169e-55 -2.35986e-54 0)
(-3.11943e-55 -7.93329e-56 0)
(-9.64791e-55 2.45873e-54 0)
(-4.05969e-54 1.55918e-53 0)
(-1.61486e-53 6.79333e-53 0)
(-8.68475e-54 2.77057e-52 0)
(3.52315e-53 2.09085e-52 0)
(4.7459e-53 -2.93042e-52 0)
(1.23869e-56 -5.59081e-52 0)
(-4.74357e-53 -2.92934e-52 0)
(-3.50463e-53 2.08546e-52 0)
(9.93177e-54 2.73712e-52 0)
(2.07909e-53 4.43496e-53 0)
(3.24629e-35 4.76746e-36 0)
(3.36368e-36 4.0947e-37 0)
(3.163e-37 3.61822e-38 0)
(2.90929e-38 3.05739e-39 0)
(2.50376e-39 2.534e-40 0)
(2.09435e-40 2.00199e-41 0)
(1.66514e-41 1.53799e-42 0)
(1.28506e-42 1.13409e-43 0)
(9.51468e-44 8.12808e-45 0)
(6.8425e-45 5.62424e-46 0)
(4.74984e-46 3.78669e-47 0)
(3.20684e-47 2.47185e-48 0)
(2.0988e-48 1.57224e-49 0)
(1.33804e-49 9.72608e-51 0)
(8.29518e-51 5.87203e-52 0)
(5.01441e-52 3.52211e-53 0)
(2.86976e-53 4.93496e-54 0)
(1.5098e-54 1.52876e-53 0)
(2.83797e-54 1.06839e-53 0)
(2.03953e-54 -2.74019e-53 0)