/*--------------------------------*- C++ -*----------------------------------*\
| =========                 |                                                 |
| \\      /  F ield         | OpenFOAM: The Open Source CFD Toolbox           |
|  \\    /   O peration     | Version:  2.4.0                                 |
|   \\  /    A nd           | Web:      www.OpenFOAM.org                      |
|    \\/     M anipulation  |                                                 |
\*---------------------------------------------------------------------------*/
FoamFile
{
    version     2.0;
    format      ascii;
    class       surfaceScalarField;
    location    "0.6";
    object      phi;
}
// * * * * * * * * * * * * * * * * * * * * * * * * * * * * * * * * * * * * * //

dimensions      [0 3 -1 0 0 0 0];

internalField   nonuniform List<scalar> 
3731
(
1.13083e-44
-1.80573e-42
-2.49503e-43
1.21393e-43
-1.55792e-41
-2.14601e-42
1.08136e-42
-1.28764e-40
-1.76433e-41
9.09449e-42
-9.93548e-40
-1.35809e-40
7.33896e-41
-7.40134e-39
-1.00441e-39
5.47168e-40
-4.97648e-38
-6.75738e-39
3.93104e-39
-3.31758e-37
-4.43822e-38
2.46806e-38
-1.8262e-36
-2.46676e-37
1.52876e-37
-1.11968e-35
-1.4356e-36
6.73599e-37
-4.10226e-35
-5.50431e-36
-2.16401e-39
-4.39943e-41
-1.25084e-38
-2.87945e-40
-1.79375e-38
-2.49375e-39
-4.73451e-37
-1.99272e-39
5.16664e-46
4.82242e-39
4.73451e-37
4.82242e-39
1.79376e-38
-1.99272e-39
1.25101e-38
-2.49373e-39
2.16792e-39
-2.87864e-40
2.16955e-40
-4.32376e-41
2.66302e-41
-4.34361e-42
2.26484e-42
-4.80519e-43
-2.26501e-42
-8.62126e-44
-2.66322e-41
-4.80546e-43
-2.16978e-40
-4.34393e-42
-2.16817e-39
-4.32416e-41
-1.25126e-38
-2.87907e-40
-1.79645e-38
-2.49421e-39
-4.7367e-37
-1.99711e-39
-2.19483e-39
4.7787e-39
4.60721e-37
4.53017e-39
-2.19483e-39
-4.53017e-39
-4.7367e-37
-4.7787e-39
-1.79645e-38
1.99711e-39
-1.25126e-38
2.49421e-39
-2.1682e-39
2.87907e-40
-2.17236e-40
4.32376e-41
-2.91944e-41
4.3002e-42
-2.94067e-41
-3.65271e-45
-2.19497e-40
-4.3396e-42
-2.19231e-39
-4.36707e-41
-1.27027e-38
-2.9177e-40
-1.99129e-38
-2.53306e-39
-4.83986e-37
-2.24125e-39
-7.40286e-39
2.57722e-39
7.4026e-39
5.0749e-39
4.83984e-37
2.57719e-39
1.98867e-38
-2.24171e-39
1.25557e-38
-2.53628e-39
-3.10991e-40
-5.54317e-40
4.77411e-41
-3.18e-39
4.06934e-40
-2.3586e-38
3.37871e-39
-3.95844e-38
2.66223e-39
2.52196e-46
-6.51073e-39
3.95844e-38
-6.51073e-39
2.3586e-38
2.66223e-39
3.18062e-39
3.3787e-39
5.57022e-40
4.07261e-40
6.32907e-41
5.64641e-41
7.91521e-42
5.46114e-42
7.12874e-43
5.66384e-43
-7.12932e-43
9.77032e-44
-7.91587e-42
5.66411e-43
-6.32981e-41
5.46149e-42
-5.57104e-40
5.64685e-41
-3.18142e-39
4.0731e-40
-2.3594e-38
3.37927e-39
-3.96485e-38
2.66774e-39
-5.65027e-40
-6.4537e-39
3.63397e-38
-6.09796e-39
-5.65027e-40
6.09796e-39
-3.96485e-38
6.4537e-39
-2.3594e-38
-2.66774e-39
-3.18142e-39
-3.37927e-39
-5.57112e-40
-4.0731e-40
-6.33812e-41
-5.64641e-41
-8.72459e-42
-5.41197e-42
-8.79226e-42
3.97803e-45
-6.40928e-41
5.45679e-42
-5.64232e-40
5.6977e-41
-3.23671e-39
4.12204e-40
-2.4087e-38
3.43022e-39
-4.22641e-38
3.01797e-39
-2.09064e-38
-3.48777e-39
2.09063e-38
-6.87145e-39
4.22634e-38
-3.48774e-39
2.40784e-38
3.01825e-39
3.18491e-39
3.42789e-39
3.16638e-40
-1.18139e-40
1.37761e-41
-5.09601e-40
1.12689e-40
-2.854e-39
7.84153e-40
-4.58636e-39
5.86789e-40
1.33873e-47
-1.50205e-39
4.58636e-39
-1.50205e-39
2.854e-39
5.86788e-40
5.0967e-40
7.8415e-40
1.18108e-40
1.12786e-40
1.52917e-41
1.64239e-41
2.1316e-42
1.70696e-42
2.03642e-43
1.82566e-43
-2.03661e-43
3.27721e-44
-2.13182e-42
1.82576e-43
-1.5294e-41
1.70708e-42
-1.18133e-40
1.64253e-41
-5.09901e-40
1.12802e-40
-2.85616e-39
7.84332e-40
-4.60188e-39
5.88512e-40
-1.20267e-40
-1.48545e-39
4.06116e-39
-1.38754e-39
-1.20267e-40
1.38754e-39
-4.60188e-39
1.48545e-39
-2.85616e-39
-5.88512e-40
-5.09901e-40
-7.84332e-40
-1.18136e-40
-1.12802e-40
-1.53192e-41
-1.64238e-41
-2.36465e-42
-1.69046e-42
-2.385e-42
1.36001e-45
-1.55224e-41
1.70547e-42
-1.20039e-40
1.65884e-41
-5.23034e-40
1.14327e-40
-2.95875e-39
7.99033e-40
-4.99128e-39
6.84691e-40
-2.44908e-39
-8.15807e-40
2.44907e-39
-1.60151e-39
4.99119e-39
-8.15796e-40
2.95778e-39
6.84777e-40
5.17159e-40
7.98367e-40
8.74805e-41
-1.79869e-41
3.51747e-42
-6.0522e-41
2.67977e-41
-2.63248e-40
1.74916e-40
-4.05654e-40
1.28437e-40
-4.24061e-48
-3.34922e-40
4.05654e-40
-3.34922e-40
2.63247e-40
1.28437e-40
6.05237e-41
1.74917e-40
1.79089e-41
2.68322e-41
2.59405e-42
4.21712e-42
3.89282e-43
4.62008e-43
3.90409e-44
5.18175e-44
-3.9045e-44
9.62209e-45
-3.89327e-43
5.18206e-44
-2.59452e-42
4.62046e-43
-1.79139e-41
4.21757e-42
-6.05682e-41
2.6837e-41
-2.63642e-40
1.74968e-40
-4.08292e-40
1.28904e-40
-1.83037e-41
-3.30653e-40
3.42492e-40
-3.07623e-40
-1.83037e-41
3.07623e-40
-4.08292e-40
3.30653e-40
-2.63642e-40
-1.28904e-40
-6.05682e-41
-1.74968e-40
-1.79144e-41
-2.6837e-41
-2.59955e-42
-4.21712e-42
-4.34215e-43
-4.57163e-43
-4.38246e-43
4.09874e-46
-2.6385e-42
4.61558e-43
-1.82597e-41
4.26364e-42
-6.27676e-41
2.72471e-41
-2.78912e-40
1.78719e-40
-4.50513e-40
1.51467e-40
-2.18388e-40
-1.83035e-40
2.18387e-40
-3.58371e-40
4.50509e-40
-1.83033e-40
2.7888e-40
1.51475e-40
6.24863e-41
1.78469e-40
2.05661e-41
-2.62827e-42
6.38776e-43
-6.49898e-42
4.65311e-42
-1.84252e-41
2.85255e-41
-2.60453e-41
2.0509e-41
-2.45154e-48
-5.45674e-41
2.60452e-41
-5.45674e-41
1.84248e-41
2.0509e-41
6.49705e-42
2.85257e-41
2.5999e-42
4.66099e-42
4.12695e-43
7.71942e-43
6.63969e-44
8.8516e-44
6.91394e-45
1.02664e-44
-6.91474e-45
1.9617e-45
-6.64055e-44
1.02671e-44
-4.12785e-43
8.8524e-44
-2.60081e-42
7.72035e-43
-6.50496e-42
4.66198e-42
-1.84922e-41
2.8536e-41
-2.64659e-41
2.05985e-41
-2.6673e-42
-5.37852e-41
1.91276e-41
-4.98169e-41
-2.6673e-42
4.98169e-41
-2.64659e-41
5.37852e-41
-1.84922e-41
-2.05985e-41
-6.50497e-42
-2.8536e-41
-2.6009e-42
-4.66197e-42
-4.13709e-43
-7.71941e-43
-7.43972e-44
-8.75279e-44
-7.51338e-44
8.51567e-47
-4.20606e-43
8.84222e-44
-2.65948e-42
7.81126e-43
-6.85027e-42
4.74021e-42
-2.06715e-41
2.92184e-41
-3.02956e-41
2.44773e-41
-1.41744e-41
-3.001e-41
1.41745e-41
-5.86158e-41
3.02976e-41
-3.00098e-41
2.0691e-41
2.44768e-41
6.93325e-42
2.9161e-41
3.52548e-42
-3.46098e-43
1.07813e-43
-6.59665e-43
7.47618e-43
-8.94757e-43
4.43002e-42
-9.35411e-43
3.14764e-42
-3.88391e-49
-8.47709e-42
9.35407e-43
-8.47708e-42
8.94684e-43
3.14768e-42
6.59143e-43
4.43035e-42
3.40457e-43
7.51028e-43
5.79791e-44
1.30506e-43
9.79877e-45
1.54895e-44
1.0518e-45
1.85162e-45
-1.05193e-45
3.6186e-46
-9.80016e-45
1.85174e-45
-5.79934e-44
1.54911e-44
-3.406e-43
1.30524e-43
-6.60351e-43
7.5121e-43
-9.0464e-43
4.4322e-42
-9.94595e-43
3.16335e-42
-3.50414e-43
-8.34473e-42
2.17075e-43
-7.71039e-42
-3.50414e-43
7.71039e-42
-9.94595e-43
8.34473e-42
-9.0464e-43
-3.16335e-42
-6.60353e-43
-4.4322e-42
-3.40615e-43
-7.51209e-43
-5.81379e-44
-1.30506e-43
-1.1021e-44
-1.53072e-44
-1.11357e-44
1.59733e-47
-5.91871e-44
1.54719e-44
-3.4922e-43
1.32158e-43
-7.08377e-43
7.64845e-43
-1.18591e-42
4.54703e-42
-1.30332e-42
3.78202e-42
-5.26763e-43
-4.68108e-42
5.26806e-43
-9.12541e-42
1.30388e-42
-4.68109e-42
1.19119e-42
3.78155e-42
7.32412e-43
4.53512e-42
5.60226e-43
-4.36688e-44
3.62459e-44
-6.96129e-44
8.90216e-44
-2.61168e-45
6.06328e-43
6.04787e-44
4.27001e-43
1.81246e-48
-1.16461e-42
-6.0465e-44
-1.16459e-42
2.70514e-45
4.2727e-43
6.96031e-44
6.0864e-43
4.36896e-44
1.06773e-43
7.79924e-45
1.92392e-44
1.36786e-45
2.35138e-45
1.50129e-46
2.87771e-46
-1.50149e-46
5.73341e-47
-1.36807e-45
2.87792e-46
-7.80137e-45
2.35163e-45
-4.37105e-44
1.92421e-44
-6.97761e-44
1.06802e-43
-4.09601e-45
6.08928e-43
5.24928e-44
4.2965e-43
-4.50805e-44
-1.14506e-42
-1.38041e-43
-1.05544e-42
-4.50805e-44
1.05544e-42
5.24928e-44
1.14506e-42
-4.09603e-45
-4.2965e-43
-6.97763e-44
-6.08928e-43
-4.37127e-44
-1.06801e-43
-7.82248e-45
-1.92392e-44
-1.54294e-45
-2.32249e-45
-1.55962e-45
2.56516e-48
-7.97221e-45
2.34854e-45
-4.49097e-44
1.94953e-44
-7.61848e-44
1.08865e-43
-3.98132e-44
6.25787e-43
2.79703e-44
5.16896e-43
2.97906e-44
-6.45576e-43
-2.97804e-44
-1.25633e-42
-2.786e-44
-6.45583e-43
4.08117e-44
5.16778e-43
8.07599e-44
6.23763e-43
7.87213e-44
1.69293e-44
-7.78663e-44
-4.34975e-45
-1.2652e-43
7.33028e-45
6.26389e-44
1.77825e-44
5.39571e-44
1.65736e-47
-1.53303e-43
-1.76401e-44
-1.53169e-43
-6.18093e-45
5.57067e-44
7.48047e-45
8.00216e-44
5.27978e-45
1.43797e-44
9.75061e-46
2.66886e-45
1.75562e-46
3.33561e-46
1.96199e-47
4.16155e-47
-1.96227e-47
8.418e-48
-1.7559e-46
4.16187e-47
-9.75348e-46
3.33599e-46
-5.28257e-45
2.66928e-45
-7.50312e-45
1.4384e-44
6.00244e-45
8.00633e-44
1.66439e-44
5.60453e-44
-5.45842e-45
-1.50447e-43
-2.61198e-44
-1.3844e-43
-5.45842e-45
1.3844e-43
1.66439e-44
1.50447e-43
6.00244e-45
-5.60453e-44
-7.50315e-45
-8.00633e-44
-5.28286e-45
-1.4384e-44
-9.78156e-46
-2.66885e-45
-1.98508e-46
-3.29319e-46
-2.00719e-46
3.80828e-49
-9.97722e-46
3.3314e-46
-5.43604e-45
2.70581e-45
-8.29961e-45
1.46759e-44
1.7204e-45
8.23944e-44
1.46218e-44
6.77146e-44
9.201e-45
-8.51426e-44
-9.19924e-45
-1.65464e-43
-1.46045e-44
-8.51443e-44
-1.56934e-45
6.76918e-44
8.98803e-45
8.208e-44
1.04928e-44
4.90925e-43
3.20477e-42
4.6699e-44
-1.08268e-42
1.3331e-44
-1.21004e-43
3.92614e-45
-4.40796e-45
1.39127e-46
-1.95905e-44
-2.59537e-45
-1.87877e-44
-1.06922e-45
6.75115e-45
8.22173e-46
9.78248e-45
6.17797e-46
1.79674e-45
1.16745e-46
3.41115e-46
2.14346e-47
4.34447e-47
2.42861e-48
5.50346e-48
-2.42896e-48
1.1277e-48
-2.14382e-47
5.5039e-48
-1.16781e-46
4.34499e-47
-6.18141e-46
3.41173e-46
-8.24909e-46
1.79732e-45
1.04839e-45
9.78826e-45
2.48786e-45
6.79946e-45
-6.39612e-46
-1.8379e-44
-3.54908e-45
-1.68848e-44
-6.39612e-46
1.68848e-44
2.48786e-45
1.8379e-44
1.04839e-45
-6.79946e-45
-8.24912e-46
-9.78826e-45
-6.18177e-46
-1.79732e-45
-1.17134e-46
-3.41115e-46
-2.42814e-47
-4.28763e-47
-2.45584e-47
5.14799e-50
-1.19555e-46
4.33878e-47
-6.36837e-46
3.45994e-46
-9.1984e-46
1.83525e-45
5.50161e-46
1.00854e-44
2.30538e-45
8.2496e-45
1.37228e-45
-1.0437e-44
-1.37202e-45
-2.02588e-44
-2.30295e-45
-1.04373e-44
-5.29568e-46
8.24598e-45
1.01323e-45
1.00416e-44
1.30025e-45
9.30037e-42
-1.78986e-41
9.76099e-43
-1.88654e-42
1.14583e-43
-1.67639e-43
1.05772e-44
-1.23214e-44
9.03632e-46
-3.48104e-45
-2.41652e-46
-2.54537e-45
-1.29181e-46
8.81789e-46
8.87848e-47
1.29171e-45
6.85707e-47
2.41142e-46
1.31925e-47
4.65716e-47
2.4581e-48
6.01574e-48
2.81781e-49
7.7094e-49
-2.81816e-49
1.59526e-49
-2.45842e-48
7.71008e-49
-1.3195e-47
6.01655e-48
-6.85845e-47
4.65811e-47
-8.87174e-47
2.41244e-46
1.32156e-46
1.29281e-45
2.99947e-46
8.9291e-46
-7.10468e-47
-2.42612e-45
-4.15374e-46
-2.2262e-45
-7.10468e-47
2.2262e-45
2.99947e-46
2.42612e-45
1.32156e-46
-8.9291e-46
-8.87178e-47
-1.29281e-45
-6.85889e-47
-2.41243e-46
-1.32364e-47
-4.65729e-47
-2.78893e-48
-5.9354e-48
-2.82136e-48
7.33284e-51
-1.35174e-47
6.0077e-48
-7.07244e-47
4.72553e-47
-9.94057e-47
2.46487e-46
7.71303e-47
1.33329e-45
2.82604e-46
1.08673e-45
1.65524e-46
-1.38133e-45
-1.65489e-46
-2.67878e-45
-2.82297e-46
-1.38138e-45
-7.45937e-47
1.08615e-45
1.10835e-46
1.32691e-45
1.73388e-46
6.95549e-36
-2.54936e-35
-4.84187e-35
7.65819e-36
-3.31975e-37
-1.87877e-33
-3.77055e-35
-1.15875e-36
1.76754e-35
2.11198e-33
5.5616e-35
-1.51533e-35
1.36912e-36
3.86287e-35
5.59319e-35
7.53077e-37
7.77072e-36
6.85788e-35
9.69309e-36
8.6635e-36
-8.64794e-37
1.18032e-34
1.6681e-35
-9.96537e-37
-1.48561e-35
2.35773e-34
1.09039e-34
-1.67303e-35
-2.62422e-35
3.45921e-33
2.7107e-34
-2.94569e-35
-8.09675e-37
3.67353e-33
2.76053e-34
-9.07662e-37
2.61635e-35
1.14458e-34
2.93669e-35
1.59703e-35
1.77717e-35
2.78956e-36
2.12257e-36
3.15642e-37
2.82185e-37
4.55461e-38
2.66189e-38
7.1581e-38
2.0059e-39
7.36561e-37
-7.6529e-39
6.02091e-36
-7.8056e-38
6.03416e-35
-8.40323e-37
3.41251e-34
-6.13142e-36
5.17473e-34
-5.34993e-35
1.24117e-32
-4.81374e-35
5.17472e-34
4.81374e-35
3.41245e-34
5.34991e-35
6.02998e-35
6.1213e-36
5.65622e-36
5.83203e-37
4.08075e-37
-4.67736e-36
3.95901e-37
-1.131e-34
3.71364e-37
-4.75478e-36
4.23609e-38
-2.57061e-37
5.80848e-39
-1.00721e-38
7.16712e-40
1.56043e-40
1.18987e-39
3.2117e-39
1.87833e-38
1.05746e-36
-3.37665e-36
1.70101e-37
-2.0521e-37
1.94367e-38
-1.06509e-38
-5.06513e-40
2.39989e-39
-1.83907e-37
-2.55795e-36
-2.48642e-38
-1.44739e-37
-2.56515e-39
-6.18729e-39
-1.74847e-40
-2.26761e-40
-1.34904e-36
3.82166e-36
-1.73826e-37
2.1737e-37
-1.79203e-38
9.08044e-39
2.15509e-40
-1.51655e-39
1.10414e-37
3.94569e-36
2.30242e-38
2.31741e-37
3.19794e-39
1.05731e-38
3.5685e-40
4.95454e-40
1.30384e-36
1.02904e-36
2.10269e-37
9.25462e-38
2.46757e-38
8.67571e-39
7.82596e-40
3.04812e-39
-1.77868e-37
1.8123e-36
-3.10708e-38
1.6581e-37
-3.95084e-39
1.5785e-38
1.42927e-39
-5.09733e-40
-2.60746e-36
8.21549e-36
-4.2464e-37
5.2331e-37
-5.05147e-38
2.82397e-38
1.37923e-39
-6.25879e-39
-4.49179e-36
1.90552e-35
-7.25936e-37
1.10449e-36
-8.55187e-38
4.57835e-38
9.36363e-40
-1.05452e-38
-1.37159e-37
1.93833e-35
-2.2094e-38
1.1217e-36
-2.59172e-39
4.62541e-38
9.1635e-40
-3.18886e-40
4.47631e-36
8.56797e-36
7.23388e-37
5.40768e-37
8.52087e-38
2.85158e-38
1.32818e-39
1.05068e-38
2.76909e-36
1.67927e-36
4.51218e-37
1.49017e-37
5.36943e-38
1.3666e-38
1.2063e-39
6.65598e-39
3.75006e-37
3.94907e-37
6.44424e-38
4.40313e-38
8.11044e-39
5.05813e-39
5.10927e-40
1.03791e-39
5.19829e-38
5.06738e-38
9.55581e-39
6.25455e-39
1.25752e-39
7.72815e-40
8.23434e-41
1.67585e-40
5.12232e-39
8.13322e-39
9.83266e-40
1.16136e-39
1.33641e-40
1.54349e-40
1.80189e-41
1.82836e-41
-2.31364e-40
1.30223e-38
-5.53984e-41
2.53913e-39
-1.79673e-41
3.48103e-40
4.63357e-41
-2.81558e-42
-9.03467e-39
1.26837e-37
-1.85477e-39
2.37711e-38
-3.67921e-40
3.11217e-39
4.02588e-40
-5.36098e-41
-8.9527e-38
1.00329e-36
-1.79025e-38
1.69419e-37
-3.40633e-39
2.0743e-38
2.52727e-39
-4.82612e-40
-9.53001e-37
9.00054e-36
-1.79872e-37
1.34239e-36
-3.27381e-38
1.48024e-37
1.67398e-38
-4.4561e-39
-6.89831e-36
4.84613e-35
-1.24584e-36
5.19433e-36
-2.11357e-37
4.33121e-37
3.63274e-38
-2.7468e-38
-5.88534e-35
3.62873e-34
-9.27677e-36
2.8437e-35
-1.49594e-36
1.70031e-36
7.72753e-38
-1.8383e-37
-5.2827e-35
6.45049e-34
-8.19461e-36
4.88744e-35
-1.31425e-36
2.79457e-36
1.11047e-37
-1.60385e-37
5.2827e-35
3.62874e-34
8.1946e-36
2.84376e-35
1.31424e-36
1.70043e-36
7.72991e-38
1.60383e-37
5.88532e-35
4.84671e-35
9.27659e-36
5.20102e-36
1.49584e-36
4.34389e-37
3.6559e-38
1.83809e-37
6.89161e-36
9.04227e-36
1.24328e-36
1.39093e-36
2.10313e-37
1.56824e-37
1.82367e-38
2.72695e-38
7.9569e-37
1.36741e-36
1.39711e-37
5.84646e-37
2.04428e-38
8.63443e-38
1.31306e-38
2.37027e-39
-2.67369e-36
4.54408e-37
-4.70836e-37
3.96571e-37
-9.86861e-38
6.10681e-38
9.72572e-39
-1.443e-38
-6.20429e-36
-3.15333e-37
-4.29085e-36
-3.70366e-37
-8.46538e-37
-5.76036e-38
-9.18725e-39
-1.11589e-37
-2.76246e-36
-3.62885e-37
-4.88566e-37
-4.14942e-37
-1.02008e-37
-6.53723e-38
-9.63252e-39
-1.48377e-38
-1.5722e-37
-4.15853e-38
-4.00206e-38
-4.8272e-38
-1.16838e-38
-7.02491e-39
7.75149e-39
-1.19185e-39
-6.41574e-39
-5.4222e-39
-1.09009e-39
-4.46246e-39
6.42862e-39
1.57331e-38
9.25018e-38
1.27548e-38
2.32674e-39
1.14832e-39
1.39508e-38
1.30025e-38
7.76963e-38
1.09213e-37
6.39795e-37
1.82701e-37
2.45519e-38
1.08393e-38
1.47393e-37
9.10472e-38
9.08843e-37
7.74189e-37
4.75746e-36
2.85412e-36
1.53835e-37
1.03986e-36
7.45388e-36
3.4468e-35
2.21101e-40
-2.28231e-41
2.03287e-41
-6.96554e-44
1.68258e-42
2.30125e-44
1.37305e-43
1.13257e-45
1.04089e-44
-2.46268e-46
7.34871e-46
-1.85804e-46
3.79008e-47
5.81918e-47
1.36455e-47
8.80764e-47
8.08264e-48
1.67316e-47
1.5429e-48
3.30914e-48
2.88453e-49
4.34845e-49
3.32802e-50
5.66817e-50
-3.32258e-50
1.18858e-50
-2.87563e-49
5.66921e-50
-1.52802e-48
4.34985e-49
-7.8457e-48
3.31094e-48
-9.98312e-48
1.67533e-47
1.59419e-47
8.83215e-47
3.55154e-47
6.06737e-47
-8.13373e-48
-1.65686e-46
-4.85922e-47
-1.51865e-46
-8.13373e-48
1.51865e-46
3.55154e-47
1.65686e-46
1.59419e-47
-6.06737e-47
-9.98317e-48
-8.83215e-47
-7.84622e-48
-1.67533e-47
-1.53294e-48
-3.31032e-48
-3.26583e-49
-4.28936e-49
-3.3043e-49
5.52364e-52
-1.56607e-48
4.34316e-49
-8.09568e-48
3.36041e-48
-1.12178e-47
1.71314e-47
9.66719e-48
9.11909e-47
3.37046e-47
7.4054e-47
1.96121e-47
-9.46092e-47
-1.96075e-47
-1.83264e-46
-3.36652e-47
-9.46134e-47
-9.34328e-48
7.40072e-47
1.27036e-47
9.07104e-47
1.19098e-47
-1.33004e-41
1.05668e-42
-3.17134e-43
4.93174e-43
4.42178e-44
3.00145e-44
1.00057e-44
7.62746e-46
1.21226e-45
-1.13585e-46
1.23333e-46
-2.96059e-47
1.01654e-47
2.28895e-48
1.55528e-48
6.1148e-48
5.64807e-49
1.19208e-48
1.02552e-49
2.38975e-49
1.89258e-50
3.16973e-50
2.19034e-51
4.15271e-51
-2.16487e-51
8.75295e-52
-1.85648e-50
4.15807e-51
-9.73178e-50
3.17772e-50
-4.93305e-49
2.40096e-49
-6.22321e-49
1.20704e-48
1.01833e-48
6.2966e-48
2.25214e-48
4.30701e-48
-5.119e-49
-1.1806e-47
-3.07155e-48
-1.08114e-47
-5.119e-49
1.08114e-47
2.25214e-48
1.1806e-47
1.01833e-48
-4.30701e-48
-6.22325e-49
-6.2966e-48
-4.93339e-49
-1.20703e-48
-9.76425e-50
-2.40051e-49
-2.11139e-50
-3.13316e-50
-2.13671e-50
4.07654e-53
-9.98019e-50
3.17279e-50
-5.09416e-49
2.43722e-49
-7.00695e-49
1.23464e-48
6.25149e-49
6.50444e-48
2.14424e-48
5.26939e-48
1.24498e-48
-6.75241e-48
-1.24465e-48
-1.30733e-47
-2.14153e-48
-6.75275e-48
-6.0312e-49
5.26567e-48
8.00797e-49
6.46787e-48
8.56073e-49
-9.04599e-41
-9.51741e-42
-2.43229e-42
-1.48139e-42
1.89717e-43
-1.1709e-43
5.2953e-44
-7.35412e-45
6.48109e-45
-3.82897e-46
6.8225e-46
-1.64856e-47
6.0654e-47
2.4412e-50
5.12598e-48
4.4006e-49
4.21356e-49
8.42542e-50
3.49006e-50
1.63738e-50
3.18509e-51
2.16105e-51
2.73532e-52
2.82548e-52
-1.34017e-52
5.94743e-53
-1.21299e-51
2.79372e-52
-6.32716e-51
2.11729e-51
-3.18211e-50
1.58408e-50
-3.99514e-50
7.87403e-50
6.60001e-50
4.06099e-49
1.45467e-49
2.76592e-49
-3.30367e-50
-7.61122e-49
-1.98234e-49
-6.96382e-49
-3.30367e-50
6.96382e-49
1.45467e-49
7.61122e-49
6.60001e-50
-2.76592e-49
-3.99516e-50
-4.06099e-49
-3.18234e-50
-7.874e-50
-6.34862e-51
-1.58377e-50
-1.38111e-51
-2.08712e-51
-1.3978e-51
2.77322e-54
-6.4905e-51
2.11393e-51
-3.28733e-50
1.60841e-50
-4.504e-50
8.05774e-50
4.0691e-50
4.1979e-49
1.38718e-49
3.39185e-49
8.04788e-50
-4.3616e-49
-8.04559e-50
-8.43876e-49
-1.38532e-49
-4.36185e-49
-3.91961e-50
3.38919e-49
5.18696e-50
4.17278e-49
5.55563e-50
5.23758e-41
4.95923e-42
5.6729e-42
-2.88047e-43
5.31067e-43
-1.63283e-44
4.91494e-44
5.51529e-46
4.13012e-45
2.29605e-46
3.38761e-46
2.87567e-47
2.59035e-47
2.93242e-48
1.92796e-48
2.74661e-49
1.37461e-49
2.48032e-50
9.64926e-51
2.46803e-51
6.80118e-52
2.38692e-52
4.72572e-53
2.4959e-53
-6.45254e-54
4.33947e-54
-7.44627e-53
1.84881e-53
-3.86325e-52
1.3953e-52
-1.9262e-51
1.03824e-51
-2.40792e-51
5.13843e-51
4.00176e-51
2.62915e-50
8.79672e-51
1.78469e-50
-2.00093e-51
-4.92564e-50
-1.19873e-50
-4.5035e-50
-2.00093e-51
4.5035e-50
8.79672e-51
4.92564e-50
4.00176e-51
-1.78469e-50
-2.40793e-51
-2.62915e-50
-1.92635e-51
-5.13841e-51
-3.87666e-52
-1.03803e-51
-8.49787e-53
-1.37529e-52
-8.60157e-53
1.84176e-55
-3.96441e-52
1.39306e-52
-1.99082e-51
1.05431e-51
-2.71809e-51
5.25944e-51
2.47333e-51
2.71881e-50
8.4e-51
2.19268e-50
4.87113e-51
-2.82613e-50
-4.86963e-51
-5.46593e-50
-8.38808e-51
-2.8263e-50
-2.37908e-51
2.19083e-50
3.14732e-51
2.70178e-50
3.61928e-51
2.73497e-40
7.68406e-41
2.49044e-41
6.11452e-42
2.03768e-42
4.95603e-43
1.65126e-43
3.74847e-44
1.24244e-44
2.79162e-45
9.16115e-46
1.96219e-46
6.38596e-47
1.34754e-47
4.34412e-48
8.8467e-49
2.82551e-49
5.67417e-50
1.792e-50
3.53173e-51
1.09626e-51
2.16397e-52
6.54453e-53
1.31833e-53
3.19875e-54
9.25554e-55
-4.30832e-54
1.18595e-54
-2.33126e-53
8.64159e-54
-1.15602e-52
6.38653e-53
-1.44054e-52
3.14055e-52
2.40317e-52
1.5933e-51
5.27273e-52
1.0778e-51
-1.20128e-52
-2.98388e-51
-7.18582e-52
-2.72619e-51
-1.20128e-52
2.72619e-51
5.27273e-52
2.98388e-51
2.40317e-52
-1.0778e-51
-1.44055e-52
-1.5933e-51
-1.15612e-52
-3.14053e-52
-2.34052e-53
-6.38523e-53
-5.14876e-54
-8.51456e-54
-5.21189e-54
1.15445e-56
-2.39386e-53
8.62559e-54
-1.19514e-52
6.48643e-53
-1.62765e-52
3.21542e-52
1.48734e-52
1.64839e-51
5.03971e-52
1.32673e-51
2.92174e-52
-1.71443e-51
-2.92079e-52
-3.31431e-51
-5.03226e-52
-1.71454e-51
-1.42905e-52
1.32553e-51
1.89415e-52
1.63761e-51
2.20578e-52
-4.78245e-41
1.39602e-40
-4.44934e-42
1.0998e-41
-3.72188e-43
8.80183e-43
-3.04546e-44
6.57401e-44
-2.31425e-45
4.83192e-45
-1.71076e-46
3.35374e-46
-1.19544e-47
2.27349e-47
-8.11384e-49
1.47159e-48
-5.2619e-50
9.2863e-50
-3.31485e-51
5.63953e-51
-2.00851e-52
3.33957e-52
-1.18307e-53
1.91481e-53
-7.0764e-55
1.0796e-54
-2.98214e-55
1.27496e-55
-1.34243e-54
5.27198e-55
-6.6014e-54
3.8586e-54
-8.19891e-54
1.89185e-53
1.37292e-53
9.53761e-53
3.00653e-53
6.43393e-53
-6.86238e-54
-1.78557e-52
-4.09802e-53
-1.63042e-52
-6.86238e-54
1.63042e-52
3.00653e-53
1.78557e-52
1.37292e-53
-6.43393e-53
-8.19896e-54
-9.53761e-53
-6.60181e-54
-1.89184e-53
-1.34512e-54
-3.85766e-54
-2.97197e-55
-5.16528e-55
-3.00863e-55
7.04186e-58
-1.37601e-54
5.23294e-55
-6.82676e-54
3.91915e-54
-9.27315e-54
1.93726e-53
8.50863e-54
9.87022e-53
2.8765e-53
7.93227e-53
1.66719e-53
-1.02693e-52
-1.66662e-53
-1.98468e-52
-2.87207e-53
-1.027e-52
-8.16666e-54
7.92466e-53
1.0837e-53
9.80347e-53
1.32722e-53
-5.64306e-40
6.78512e-41
-5.13268e-41
3.30735e-42
-4.19955e-42
2.04389e-43
-3.39147e-43
1.37972e-44
-2.54466e-44
9.77588e-46
-1.86709e-45
6.68326e-47
-1.29555e-46
4.49688e-48
-8.76061e-48
2.894e-49
-5.66323e-49
1.81813e-50
-3.56466e-50
1.09911e-51
-2.16024e-51
6.48138e-53
-1.27515e-52
3.69773e-54
-7.28449e-54
2.06355e-55
-4.20197e-55
1.51497e-56
-9.74584e-56
3.09247e-56
-3.71426e-55
2.2234e-55
-4.58736e-55
1.086e-54
7.70281e-55
5.43914e-54
1.68426e-54
3.65871e-54
-3.8501e-55
-1.01794e-53
-2.296e-54
-9.28935e-54
-3.8501e-55
9.28935e-54
1.68426e-54
1.01794e-53
7.70283e-55
-3.65871e-54
-4.58679e-55
-5.43914e-54
-3.70298e-55
-1.086e-54
-7.58046e-56
-2.22264e-55
-1.67858e-56
-2.98958e-56
-1.69935e-56
4.10522e-59
-7.75537e-56
3.02896e-56
-3.82993e-55
2.25831e-55
-5.19185e-55
1.11228e-54
4.77836e-55
5.63064e-54
1.61264e-54
4.51796e-54
9.34497e-55
-5.86061e-54
-9.34164e-55
-1.13229e-53
-1.61009e-54
-5.86106e-54
-4.58242e-55
4.5134e-54
6.09114e-55
5.59135e-54
7.60728e-55
-9.45362e-40
-8.9422e-41
-8.57011e-41
-1.24917e-41
-6.98561e-42
-1.15786e-42
-5.62751e-43
-9.00794e-44
-4.21102e-44
-6.69642e-45
-3.08382e-45
-4.65937e-46
-2.1355e-46
-3.1578e-47
-1.44182e-47
-2.04196e-48
-9.30579e-49
-1.28673e-49
-5.85008e-50
-7.80013e-51
-3.54076e-51
-4.60821e-52
-2.08786e-52
-2.63283e-53
-1.19119e-53
-1.46689e-54
-6.63423e-55
-7.91106e-56
-3.98847e-56
-2.47385e-57
-2.18522e-56
1.23095e-56
-2.47626e-56
6.10676e-56
4.15411e-56
3.04342e-55
9.07002e-56
2.04238e-55
-2.07657e-56
-5.69404e-55
-1.23661e-55
-5.19363e-55
-2.07657e-56
5.19363e-55
9.07005e-56
5.69404e-55
4.15459e-56
-2.04238e-55
-2.46659e-56
-3.04343e-55
-1.99669e-56
-6.10782e-56
-4.10748e-57
-1.25222e-56
-9.1181e-58
-1.68957e-57
-9.23136e-58
2.31862e-60
-4.20274e-57
1.7119e-57
-2.06558e-56
1.2724e-56
-2.79425e-56
6.25631e-56
2.5798e-56
3.15126e-55
8.6912e-56
2.5254e-55
5.0354e-56
-3.28084e-55
-5.03354e-56
-6.33732e-55
-8.67704e-56
-3.2811e-55
-2.47209e-56
2.52275e-55
3.28967e-56
3.12871e-55
4.2759e-56
-2.85131e-41
-9.48891e-41
-2.58079e-42
-1.30282e-41
-2.09989e-43
-1.20388e-42
-1.68961e-44
-9.35873e-44
-1.26267e-45
-6.95581e-45
-9.23803e-47
-4.83966e-46
-6.39078e-48
-3.28002e-47
-4.31151e-49
-2.12103e-48
-2.78053e-50
-1.33658e-49
-1.74685e-51
-8.10248e-51
-1.0566e-52
-4.78692e-52
-6.22701e-54
-2.73499e-53
-3.5508e-55
-1.52387e-54
-1.97852e-56
-8.24075e-56
-1.28282e-57
-4.25795e-57
-1.11024e-57
4.55544e-58
-1.3022e-57
3.29432e-57
2.19367e-57
1.63851e-56
4.78318e-57
1.09698e-56
-1.09652e-57
-3.06471e-56
-6.52207e-57
-2.79398e-56
-1.09652e-57
2.79399e-56
4.78318e-57
3.06474e-56
2.19382e-57
-1.09697e-56
-1.29933e-57
-1.63857e-56
-1.05415e-57
-3.30564e-57
-2.17673e-58
-6.79042e-58
-4.83806e-59
-9.17373e-59
-4.89819e-59
-6.4841e-62
-2.22736e-58
9.31005e-59
-1.09068e-57
6.90018e-58
-1.47293e-57
3.38641e-57
1.36327e-57
1.69702e-56
4.58632e-57
1.35826e-56
2.65676e-57
-1.7673e-56
-2.65574e-57
-3.41296e-56
-4.57867e-57
-1.76741e-56
-1.3055e-57
1.35676e-56
1.73964e-57
1.68458e-56
2.31251e-57
9.41882e-40
5.85378e-41
8.53847e-41
2.43747e-42
6.95966e-42
1.3057e-43
5.60655e-43
8.161e-45
4.19527e-44
5.59374e-46
3.07226e-45
3.7623e-47
2.12746e-46
2.50825e-48
1.43638e-47
1.60156e-49
9.27061e-49
9.99858e-51
5.82792e-50
6.00612e-52
3.52731e-51
3.52185e-53
2.07991e-52
1.99725e-54
1.18663e-53
1.10579e-55
6.60088e-55
5.94423e-57
3.56435e-56
3.16963e-58
1.82584e-57
5.15643e-59
3.02705e-59
1.73951e-58
1.16942e-58
8.62772e-58
2.44301e-58
5.79458e-58
-5.60213e-59
-1.61217e-57
-3.3282e-58
-1.47064e-57
-5.60105e-59
1.47114e-57
2.44058e-58
1.61839e-57
1.12073e-58
-5.75073e-58
-6.62314e-59
-8.62341e-58
-5.38407e-59
-1.75526e-58
-1.11604e-59
-3.61893e-59
-2.50405e-60
-1.14796e-60
-2.51635e-60
-3.96014e-60
-1.14099e-59
4.20487e-60
-5.57156e-59
3.64446e-59
-7.51146e-59
1.79573e-58
6.96987e-59
8.96257e-58
2.34155e-58
7.16795e-58
1.3564e-58
-9.33547e-58
-1.35561e-58
-1.79887e-57
-2.33786e-58
-9.26629e-58
-6.67282e-59
7.12622e-58
8.89963e-59
8.86935e-58
1.19898e-58
6.00355e-40
1.15876e-40
5.46239e-41
9.05916e-42
4.47055e-42
7.22111e-43
3.61118e-43
5.38042e-44
2.71007e-44
3.94685e-45
1.98881e-45
2.73457e-46
1.38023e-46
1.85046e-47
9.33448e-48
1.19562e-48
6.03495e-49
7.53036e-50
3.79907e-50
4.56291e-51
2.30254e-51
2.6948e-52
1.35928e-52
1.53915e-53
7.76377e-54
8.57348e-55
4.32298e-55
4.63585e-56
2.33722e-56
2.4456e-57
1.23045e-57
1.20122e-58
6.02545e-59
-2.17367e-59
9.13358e-60
3.13833e-59
1.23667e-59
8.52973e-59
-3.00101e-60
-3.70511e-59
-1.65274e-59
-6.58685e-59
-2.52898e-60
7.5123e-59
1.21046e-59
1.63162e-58
5.32345e-60
6.08817e-60
-3.47936e-60
-2.30816e-59
-2.52847e-60
-2.22075e-59
-5.31625e-61
-7.5405e-60
-5.48502e-61
7.45551e-59
-1.57726e-61
-7.97657e-59
-3.17425e-61
-1.45096e-59
-2.62565e-60
3.08976e-62
-3.57735e-60
1.71317e-59
3.35735e-60
8.72404e-59
1.14005e-59
7.37577e-59
7.0292e-60
-9.09498e-59
-6.48254e-60
-9.81766e-59
-1.20295e-59
5.20418e-59
-3.67414e-60
1.85393e-60
4.68299e-60
3.16329e-59
-4.18967e-59
9.67918e-41
5.30609e-41
8.98651e-42
4.29346e-42
7.50913e-43
3.47296e-43
6.15084e-44
2.60837e-44
4.68145e-45
1.92176e-45
3.47062e-46
1.33655e-46
2.43301e-47
9.06904e-48
1.65812e-48
5.87563e-49
1.08009e-49
3.70858e-50
6.83986e-51
2.25198e-51
4.16944e-52
1.33233e-52
2.47296e-53
7.62285e-54
1.41886e-54
4.25234e-55
7.93015e-56
2.30217e-56
4.30079e-57
1.18452e-57
2.25543e-58
-9.02414e-59
1.59757e-59
-7.59303e-58
8.4741e-60
-2.65337e-58
1.20822e-60
1.15415e-57
-4.70465e-60
9.27805e-58
8.04775e-61
1.79306e-58
5.47734e-60
-1.40653e-59
-8.7102e-61
1.57278e-57
-5.45772e-60
7.08676e-58
-3.96473e-60
4.24938e-58
3.16254e-60
-2.78111e-58
6.26237e-61
-1.33688e-58
-8.69407e-60
1.4654e-57
-6.39616e-61
-1.56729e-57
5.25538e-60
-2.88103e-58
3.24626e-60
-3.41918e-59
3.5006e-60
1.64148e-58
-2.61656e-60
8.59272e-58
-5.86064e-60
7.68239e-58
5.5879e-60
-9.03061e-58
5.66683e-60
-1.57023e-58
-7.9443e-60
1.95447e-57
-7.01401e-60
-7.27916e-58
5.03914e-60
-2.69226e-58
-9.21188e-58
1.61459e-41
8.83251e-42
1.53268e-42
7.34033e-43
1.3042e-43
6.03586e-44
1.08248e-44
4.60511e-45
8.32965e-46
3.43008e-46
6.22622e-47
2.41167e-47
4.39477e-48
1.64969e-48
3.01064e-49
1.0774e-49
1.96951e-50
6.84271e-51
1.2512e-51
4.1805e-52
7.64643e-53
2.48533e-53
4.54335e-54
1.42866e-54
2.61017e-55
7.99892e-56
1.45908e-56
4.25876e-57
7.47322e-58
-4.16291e-58
-1.47257e-60
-3.04287e-57
9.4821e-59
-1.52974e-56
1.60371e-58
-5.37686e-57
1.21347e-59
2.31121e-56
-9.75218e-59
1.86617e-56
2.79131e-59
3.57268e-57
1.13263e-58
-7.68518e-58
-2.58227e-59
2.94888e-56
-1.14862e-58
1.38296e-56
-7.98785e-59
8.46777e-57
6.49046e-59
-5.65933e-57
1.487e-59
-2.99978e-57
-1.73073e-58
2.78392e-56
-1.23038e-59
-2.98744e-56
1.06494e-58
-5.45513e-57
7.01031e-59
-6.13586e-58
7.71819e-59
3.27795e-57
-5.90246e-59
1.71685e-56
-1.36534e-58
1.53212e-56
1.05012e-58
-1.81724e-56
1.21567e-58
-3.45898e-57
-1.49638e-58
3.73111e-56
-1.33984e-58
-1.4983e-56
9.82423e-59
-5.2511e-57
-1.70403e-56
1.79898e-42
2.0212e-42
1.73318e-43
1.7888e-43
1.49189e-44
1.51754e-44
1.24932e-45
1.20943e-45
9.67857e-47
9.23558e-47
7.27423e-48
6.71043e-48
5.15516e-49
4.68824e-49
3.54329e-50
3.14242e-50
2.32332e-51
2.0325e-51
1.47875e-52
1.26811e-52
9.04767e-54
7.6561e-54
5.38078e-55
4.47416e-55
3.08879e-56
2.51123e-56
1.53947e-57
-3.39236e-58
-8.37052e-58
-1.25383e-56
-8.90372e-58
-5.95809e-56
1.90756e-57
-2.99768e-55
3.29945e-57
-1.05573e-55
2.43325e-58
4.52835e-55
-2.03397e-57
3.65148e-55
4.56755e-58
6.81006e-56
2.23452e-57
-2.29088e-56
-4.33968e-58
5.40687e-55
-2.25051e-57
2.63191e-55
-1.63994e-57
1.64075e-55
1.24862e-57
-1.12656e-55
3.28616e-58
-6.48648e-56
-3.36759e-57
5.16428e-55
-2.32711e-58
-5.56126e-55
2.09828e-57
-1.00771e-55
1.42161e-57
-1.06229e-56
1.58208e-57
6.40836e-56
-1.22361e-57
3.36027e-55
-2.83587e-57
2.99056e-55
2.04862e-57
-3.58309e-55
2.41129e-57
-7.53916e-56
-2.9668e-57
6.94827e-55
-2.55366e-57
-3.00273e-55
1.95705e-57
-9.92178e-56
-3.06807e-55
-3.88008e-43
5.33836e-42
-4.11614e-44
5.1067e-43
-4.28283e-45
4.43601e-44
-3.87973e-46
3.72002e-45
-3.40908e-47
2.90377e-46
-2.73811e-48
2.18873e-47
-2.12674e-49
1.56029e-48
-1.54767e-50
1.07584e-49
-1.08933e-51
7.08516e-51
-7.28588e-53
4.51971e-52
-4.71905e-54
2.76771e-53
-2.93017e-55
1.64071e-54
-1.83902e-56
8.89953e-56
-4.82955e-57
-2.75258e-56
-1.86941e-56
-2.38164e-55
-1.79605e-56
-1.12708e-54
3.81761e-56
-5.69621e-54
6.60639e-56
-2.01003e-54
4.75517e-57
8.60368e-54
-4.12479e-56
6.92842e-54
6.75858e-57
1.25758e-54
4.27753e-56
-5.8406e-55
-6.70952e-57
9.56034e-54
-4.27561e-56
4.85329e-54
-3.27447e-56
3.08238e-54
2.32305e-56
-2.17423e-54
7.02641e-57
-1.34759e-54
-6.34834e-56
9.25204e-54
-4.24951e-57
-1.00029e-53
4.0112e-56
-1.79907e-54
2.80314e-56
-1.75165e-55
3.1546e-56
1.21512e-54
-2.46526e-56
6.37872e-54
-5.72744e-56
5.66571e-54
3.87304e-56
-6.84973e-54
4.64245e-56
-1.57667e-54
-5.71195e-56
1.25054e-53
-4.70125e-56
-5.83176e-54
3.78628e-56
-1.81615e-54
-5.30767e-54
-6.41578e-42
4.51487e-41
-6.51516e-43
4.24475e-42
-6.33798e-44
3.62945e-43
-5.56874e-45
3.01203e-44
-4.70297e-46
2.32753e-45
-3.6933e-47
1.74211e-46
-2.79469e-48