/*--------------------------------*- C++ -*----------------------------------*\
| =========                 |                                                 |
| \\      /  F ield         | OpenFOAM: The Open Source CFD Toolbox           |
|  \\    /   O peration     | Version:  2.4.0                                 |
|   \\  /    A nd           | Web:      www.OpenFOAM.org                      |
|    \\/     M anipulation  |                                                 |
\*---------------------------------------------------------------------------*/
FoamFile
{
    version     2.0;
    format      ascii;
    class       surfaceScalarField;
    location    "0.15";
    object      phi;
}
// * * * * * * * * * * * * * * * * * * * * * * * * * * * * * * * * * * * * * //

dimensions      [0 3 -1 0 0 0 0];

internalField   nonuniform List<scalar> 
15214
(
2.52348e-40
1.32603e-42
1.86176e-39
1.42161e-41
2.48125e-39
3.6957e-40
2.11289e-37
3.43621e-40
8.12666e-43
-7.28768e-40
-2.11279e-37
-7.28719e-40
-2.21974e-39
3.4498e-40
2.52799e-40
3.85102e-40
4.10133e-39
3.98057e-40
2.14023e-37
7.15864e-40
2.13412e-37
-3.69522e-40
-2.06684e-37
-1.07239e-39
2.12405e-39
3.43621e-40
2.11551e-37
7.13191e-40
2.49154e-39
-3.44983e-40
1.86258e-39
-3.69622e-40
2.52016e-40
-1.42205e-41
9.48689e-42
-1.31094e-42
7.83302e-43
-4.84877e-44
2.93637e-44
-3.08649e-45
1.79383e-45
-1.1018e-46
6.45102e-47
-5.5638e-48
3.18522e-48
-1.88597e-49
2.1639e-49
-7.74603e-51
3.18958e-48
7.75544e-51
6.46138e-47
1.88843e-49
1.79691e-45
5.57155e-48
2.9425e-44
1.10361e-46
7.85031e-43
3.09187e-45
9.51445e-42
4.85923e-44
2.5277e-40
1.31392e-42
1.87128e-39
1.42659e-41
2.73401e-39
3.70884e-40
2.1316e-37
3.57887e-40
2.73401e-39
-3.57887e-40
1.87128e-39
-3.70884e-40
2.5277e-40
-1.42659e-41
9.51445e-42
-1.31392e-42
7.85031e-43
-4.85923e-44
2.9425e-44
-3.09187e-45
1.7969e-45
-1.10364e-46
6.46021e-47
-5.62284e-48
2.98499e-48
-1.30965e-48
-8.00301e-50
-8.96776e-48
2.07354e-49
-1.71008e-46
-7.05422e-48
1.53149e-41
-1.29933e-42
1.24057e-40
-1.54251e-41
2.69605e-39
-3.97949e-40
5.07814e-39
-3.69719e-40
5.44075e-44
7.84531e-40
-5.07743e-39
7.8448e-40
-2.68009e-39
-3.71155e-40
1.53555e-41
-4.14765e-40
2.80552e-39
-4.28859e-40
7.78955e-39
-7.70491e-40
5.21816e-39
3.97898e-40
-2.24202e-39
1.15425e-39
1.40072e-40
-3.69719e-40
5.09415e-39
-7.67668e-40
2.69676e-39
3.71158e-40
1.24112e-40
3.98004e-40
1.53032e-41
1.54309e-41
6.58645e-43
1.38457e-42
5.22739e-44
5.10354e-44
2.12168e-45
3.19799e-45
1.2718e-46
1.13698e-46
4.82979e-48
5.68919e-48
2.3633e-49
1.92188e-49
1.67189e-50
7.84919e-51
2.36666e-49
-7.85866e-51
4.83779e-48
-1.92436e-49
1.27407e-46
-5.69704e-48
2.12627e-45
-1.13882e-46
5.23962e-44
-3.20348e-45
6.60639e-43
-5.11434e-44
1.53534e-41
-1.38765e-42
1.24718e-40
-1.54787e-41
2.7114e-39
-3.99337e-40
5.20286e-39
-3.85198e-40
2.7114e-39
3.85198e-40
1.24718e-40
3.99337e-40
1.53534e-41
1.54787e-41
6.60639e-43
1.38765e-42
5.23962e-44
5.11434e-44
2.12627e-45
3.20348e-45
1.27377e-46
1.13816e-46
4.58043e-48
4.75913e-48
-4.25987e-48
-2.03814e-47
-4.22566e-48
-1.64952e-46
4.53085e-48
-3.16558e-45
-1.30139e-46
1.73491e-42
-9.25544e-44
6.94702e-42
-1.12076e-42
8.97786e-41
-2.4476e-41
1.65265e-40
-2.24214e-41
8.05875e-45
4.81216e-41
-1.65175e-40
4.81176e-41
-8.7968e-41
-2.25247e-41
1.73646e-42
-2.56965e-41
9.50871e-41
-2.67221e-41
2.5678e-40
-4.71002e-41
1.74022e-40
2.4472e-41
-6.67214e-41
7.0543e-41
8.76524e-42
-2.24214e-41
1.67083e-40
-4.68974e-41
8.98685e-41
2.25249e-41
6.95503e-42
2.44803e-41
1.72873e-42
1.1212e-42
8.1865e-44
9.92684e-44
7.73456e-45
3.98321e-45
3.23809e-46
2.46869e-46
2.07261e-47
9.27547e-48
7.93992e-49
4.61152e-49
3.98741e-50
1.6207e-50
2.81599e-51
6.59124e-52
3.99311e-50
-6.59944e-52
7.9534e-49
-1.62285e-50
2.07645e-47
-4.61811e-49
3.24563e-46
-9.29099e-48
7.75449e-45
-2.47314e-46
8.2168e-44
-3.99203e-45
1.73614e-42
-9.95059e-44
7.02912e-42
-1.12494e-42
9.15147e-41
-2.45755e-41
1.72294e-40
-2.35463e-41
9.15147e-41
2.35463e-41
7.02912e-42
2.45755e-41
1.73614e-42
1.12494e-42
8.2168e-44
9.95059e-44
7.75449e-45
3.99203e-45
3.24534e-46
2.47263e-46
2.01254e-47
8.02216e-48
-4.69009e-48
-1.74234e-47
-9.78768e-47
-4.0108e-46
-9.23649e-47
-3.2227e-45
9.83866e-47
-6.38057e-44
-2.54854e-45
9.42246e-44
-1.31731e-44
2.79276e-43
-1.3462e-43
2.2993e-42
-2.8733e-42
4.11423e-42
-2.62988e-42
4.97386e-46
5.65205e-42
-4.10883e-42
5.65148e-42
-2.20059e-42
-2.64415e-42
9.42886e-44
-3.02164e-42
2.49016e-42
-3.14312e-42
6.50779e-42
-5.53118e-42
4.49218e-42
2.87272e-42
-1.43648e-42
8.28193e-42
3.78448e-43
-2.62988e-42
4.21338e-42
-5.50316e-42
2.30468e-42
2.64419e-42
2.79767e-43
2.87388e-42
9.38124e-44
1.34657e-43
4.8934e-45
1.37111e-44
4.76299e-46
5.63535e-46
2.10766e-47
3.70568e-47
1.35775e-48
1.40492e-48
5.39668e-50
7.15087e-50
2.71381e-51
2.51319e-51
1.96707e-52
1.0291e-52
2.71779e-51
-1.03037e-52
5.4061e-50
-2.51653e-51
1.36036e-48
-7.16116e-50
2.11279e-47
-1.40733e-48
4.77602e-46
-3.71258e-47
4.91311e-45
-5.64868e-46
9.42675e-44
-1.37467e-44
2.84181e-43
-1.35183e-43
2.39356e-42
-2.88703e-42
4.39838e-42
-2.76506e-42
2.39356e-42
2.76506e-42
2.84181e-43
2.88703e-42
9.42675e-44
1.35183e-43
4.91311e-45
1.37467e-44
4.77565e-46
5.64827e-46
2.05837e-47
3.6344e-47
-1.02919e-47
-1.81161e-47
-1.00237e-46
-2.75944e-46
-1.79884e-45
-6.22064e-45
-1.69848e-45
-5.07996e-44
1.79934e-45
-1.01089e-42
-4.04356e-44
7.43531e-45
-7.08339e-45
1.57913e-44
-9.00795e-45
4.00489e-44
-1.63756e-43
6.06097e-44
-1.48329e-43
4.30791e-47
3.20715e-43
-6.01681e-44
3.20681e-43
-3.22465e-44
-1.49203e-43
7.44399e-45
-1.72382e-43
4.88658e-44
-1.79834e-43
1.08098e-43
-3.13306e-43
8.41865e-44
1.63199e-43
3.05875e-45
4.6902e-43
2.36206e-44
-1.48302e-43
6.84484e-44
-3.11538e-43
4.04874e-44
1.49206e-43
1.58224e-44
1.63277e-43
7.40281e-45
8.28145e-45
3.97592e-46
8.64206e-46
4.11885e-47
3.74858e-47
1.84362e-48
2.48133e-48
1.21564e-49
9.75355e-50
4.84745e-51
4.9691e-51
2.45476e-52
1.79091e-52
1.77612e-53
7.32279e-54
2.45835e-52
-7.33198e-54
4.85595e-51
-1.79333e-52
1.21801e-49
-4.97643e-51
1.84822e-48
-9.7707e-50
4.13052e-47
-2.48612e-48
3.99313e-46
-3.75783e-47
7.44215e-45
-8.66589e-46
1.61786e-44
-8.31644e-45
4.74889e-44
-1.64103e-43
7.67855e-44
-1.56618e-43
4.74889e-44
1.56618e-43
1.61786e-44
1.64103e-43
7.44214e-45
8.31644e-45
3.99284e-46
8.66565e-46
4.05875e-47
3.68947e-47
-8.55984e-48
-1.05462e-47
-2.27694e-46
-3.32834e-46
-1.96636e-45
-4.72241e-45
-3.63885e-44
-1.10062e-43
-3.44411e-44
-9.11798e-43
3.62772e-44
-1.90048e-41
-7.31223e-43
1.56652e-46
-1.15966e-43
9.57985e-46
-1.2508e-44
2.90935e-46
-2.09485e-44
-2.29621e-46
-1.21004e-44
3.27527e-48
2.52199e-44
2.68988e-46
2.52618e-44
1.55925e-46
-1.17516e-44
3.9248e-46
-1.35887e-44
6.30822e-46
-1.4178e-44
4.04277e-46
-2.46812e-44
9.07782e-46
1.28535e-44
1.65531e-45
3.69426e-44
1.1546e-45
-1.16755e-44
1.70038e-46
-2.45322e-44
2.80803e-46
1.17517e-44
7.42499e-46
1.28601e-44
3.9016e-46
6.59179e-46
2.20719e-47
7.28034e-47
2.32019e-48
3.19153e-48
1.07453e-49
2.16089e-49
7.10892e-51
8.52855e-51
2.90111e-52
4.37447e-52
1.46837e-53
1.5755e-53
1.07929e-54
6.43442e-55
1.47055e-53
-6.44241e-55
2.90628e-52
-1.57762e-53
7.12304e-51
-4.3809e-52
1.07729e-49
-8.54364e-51
2.32701e-48
-2.16511e-49
2.21722e-47
-3.19962e-48
3.92372e-46
-7.30109e-47
7.62236e-46
-6.62154e-46
6.48676e-46
-1.29297e-44
5.1773e-46
-1.23376e-44
6.48676e-46
1.23376e-44
7.62236e-46
1.29297e-44
3.92349e-46
6.62141e-46
2.17301e-47
7.27201e-47
-8.58023e-48
-4.89294e-48
-1.58562e-46
-1.54455e-46
-3.48718e-45
-3.9636e-45
-3.05654e-44
-5.70856e-44
-5.68745e-43
-1.34148e-42
-5.39055e-43
-1.16461e-41
5.63043e-43
-2.43789e-40
-9.48324e-42
-3.73365e-45
-1.56205e-42
3.61604e-45
-2.01978e-43
6.37411e-46
-1.52887e-43
1.90277e-46
-8.29811e-45
1.67879e-47
5.04176e-46
1.1028e-46
1.31396e-45
5.94624e-47
-6.2868e-46
2.51418e-47
-7.29215e-46
-1.14811e-47
-7.62129e-46
-1.14764e-46
-1.31833e-45
-3.56435e-47
6.87824e-46
1.45392e-46
1.97298e-45
7.14394e-47
-6.21847e-46
-8.03666e-47
-1.30986e-45
-3.13824e-47
6.26183e-46
4.50374e-47
6.88212e-46
2.4983e-47
3.69688e-47
1.42753e-48
4.13644e-48
1.5338e-49
1.87527e-49
7.14128e-51
1.27323e-50
4.7569e-52
5.14145e-52
1.94361e-53
2.63408e-53
9.82789e-55
9.63418e-55
7.20927e-56
3.92213e-56
9.84234e-55
-3.92703e-56
1.94707e-53
-9.64725e-55
4.76635e-52
-2.63801e-53
7.15973e-51
-5.15068e-52
1.53836e-49
-1.27577e-50
1.4342e-48
-1.88015e-49
2.51292e-47
-4.14866e-48
4.63107e-47
-3.71436e-47
-7.84122e-48
-6.9216e-46
-6.06194e-47
-6.5899e-46
-7.84181e-48
6.58989e-46
4.62968e-47
6.92155e-46
2.47462e-47
3.69687e-47
-5.9821e-48
7.62595e-50
-1.87098e-46
-1.15945e-46
-2.73468e-45
-2.22824e-45
-6.21711e-44
-5.91862e-44
-5.52401e-43
-8.63334e-43
-1.07839e-41
-2.14209e-41
-1.02561e-41
-1.93757e-40
1.06357e-41
-4.37081e-39
-1.60588e-40
-6.04027e-44
-2.68414e-41
7.02266e-44
-2.69154e-42
1.07899e-44
-1.87817e-42
4.55696e-45
-9.3686e-44
2.52777e-46
-9.76959e-45
3.29101e-47
-3.4119e-46
4.77051e-48
-6.81187e-47
1.32792e-48
-4.73428e-47
-1.2092e-48
-4.83827e-47
-7.39403e-48
-8.35336e-47
-2.90336e-48
4.3583e-47
7.66628e-48
1.25003e-46
3.50569e-48
-3.93834e-47
-5.08092e-48
-8.29788e-47
-2.15895e-48
3.96663e-47
2.19372e-48
4.36086e-47
1.23937e-48
2.35937e-48
7.30473e-50
2.69799e-49
7.88023e-51
1.23023e-50
3.74899e-52
8.40855e-52
2.49449e-53
3.40221e-53
1.03399e-54
1.74116e-54
5.21052e-56
6.36031e-56
3.85683e-57
2.57591e-57
5.21821e-56
-2.57909e-57
1.03583e-54
-6.36886e-56
2.4995e-53
-1.74373e-54
3.75881e-52
-3.40831e-53
7.90414e-51
-8.42533e-52
7.33972e-50
-1.23346e-50
1.24688e-48
-2.70605e-49
2.25883e-48
-2.37083e-48
-9.93385e-49
-4.3866e-47
-4.14259e-48
-4.17543e-47
-1.0002e-48
4.17527e-47
2.09857e-48
4.38238e-47
-3.18076e-48
1.08366e-48
-8.58806e-47
-2.97509e-47
-2.17436e-45
-8.56003e-46
-3.2238e-44
-1.66371e-44
-7.38154e-43
-4.44968e-43
-6.84361e-42
-6.77455e-42
-1.34587e-40
-1.72073e-40
-1.28279e-40
-1.79345e-39
1.31065e-40
-4.0571e-38
-1.53946e-39
-4.05501e-43
-2.75851e-40
1.14584e-42
-4.2356e-41
2.0241e-43
-3.42509e-41
8.67669e-44
-1.59376e-42
4.60589e-45
-1.64184e-43
4.78831e-46
-6.75536e-45
2.15609e-47
-4.48873e-46
1.48002e-48
-1.92653e-47
-2.12856e-50
-3.27911e-48
-4.30887e-49
-4.18606e-48
-1.78506e-49
2.1698e-48
4.26518e-49
6.21828e-48
1.90659e-49
-1.95546e-48
-2.96765e-49
-4.12719e-48
-1.28496e-49
1.97005e-48
1.19048e-49
2.17243e-48
6.76273e-50
1.21178e-49
4.00852e-51
1.39015e-50
4.35054e-52
6.47787e-52
2.07609e-53
4.41951e-53
1.37984e-54
1.81419e-54
5.72034e-56
9.24699e-56
2.86759e-57
3.40831e-57
2.11749e-58
1.37301e-58
2.87179e-57
-1.37471e-58
5.73048e-56
-3.41289e-57
1.38259e-54
-9.26072e-56
2.08152e-53
-1.81746e-54
4.36376e-52
-4.42842e-53
4.02789e-51
-6.49508e-52
6.80414e-50
-1.39439e-50
1.22616e-49
-1.21782e-49
-6.50357e-50
-2.1857e-48
-2.49388e-49
-2.07774e-48
-1.61873e-49
2.06028e-48
-2.15783e-48
1.72779e-48
-6.45658e-47
-1.4255e-47
-1.2606e-45
-3.36548e-46
-3.30812e-44
-9.97656e-45
-4.96464e-43
-1.95616e-43
-1.20026e-41
-5.5456e-42
-1.14853e-40
-8.69803e-41
-2.44762e-39
-2.44347e-39
-2.34378e-39
-2.86331e-38
2.37443e-39
-7.43545e-37
-2.55811e-38
1.04384e-41
-4.5548e-39
2.8328e-41
-4.04947e-40
2.99752e-42
-2.78959e-40
1.04006e-42
-1.2714e-41
5.39866e-44
-1.16462e-42
5.35971e-45
-4.70308e-44
2.37371e-46
-2.96526e-45
1.54473e-47
-1.11913e-46
6.10705e-49
-5.74601e-48
1.07736e-50
-4.57814e-49
-7.28291e-51
1.28148e-49
1.96783e-50
3.90414e-49
8.73636e-51
-1.22828e-49
-1.38086e-50
-2.59291e-49
-6.01541e-51
1.23745e-49
5.44309e-51
1.36517e-49
3.10501e-51
7.65546e-51
1.87879e-52
8.83371e-52
2.03546e-53
4.13048e-53
9.85189e-55
2.81402e-54
6.51854e-56
1.15582e-55
2.72636e-57
5.85976e-57
1.35878e-58
2.15555e-58
1.00803e-59
8.61882e-60
1.36076e-58
-8.62932e-60
2.73118e-57
-2.15842e-58
6.53155e-56
-5.86838e-57
9.8776e-55
-1.15788e-55
2.04164e-53
-2.81967e-54
1.88775e-52
-4.14148e-53
3.12355e-51
-8.86084e-52
5.5855e-51
-7.69442e-51
-3.91563e-51
-1.37376e-49
-3.36175e-50
-1.31041e-49
-6.74818e-49
1.12702e-49
-1.58245e-47
-3.43231e-49
-4.47827e-46
-1.52152e-47
-8.8581e-45
-3.56521e-46
-2.3354e-43
-1.07301e-44
-3.64992e-42
-2.15433e-43
-8.96432e-41
-6.57142e-42
-9.52511e-40
-1.36005e-40
-2.06011e-38
-5.18212e-39
-1.97682e-38
-1.40942e-37
1.931e-38
-3.65933e-36
-1.37919e-37
-2.01491e-40
-1.05063e-42
-1.50829e-39
-1.15434e-41
-2.02047e-39
-3.33398e-40
-1.90671e-37
-3.12289e-40
-6.33758e-49
6.58307e-40
1.90671e-37
6.58307e-40
2.02047e-39
-3.12289e-40
1.5083e-39
-3.33397e-40
2.0121e-40
-1.15443e-41
6.87202e-42
-1.03929e-42
5.54812e-43
-3.5025e-44
1.78719e-44
-2.17103e-45
-1.7872e-44
-1.42002e-46
-5.54814e-43
-2.17104e-45
-6.87205e-42
-3.50251e-44
-2.01211e-40
-1.03929e-42
-1.50832e-39
-1.15444e-41
-2.02103e-39
-3.334e-40
-1.90678e-37
-3.12324e-40
-2.01766e-40
6.57266e-40
1.89156e-37
6.46728e-40
-2.01766e-40
-6.46728e-40
-1.90678e-37
-6.57266e-40
-2.02103e-39
3.12324e-40
-1.50832e-39
3.334e-40
-2.01211e-40
1.15444e-41
-6.87318e-42
1.03929e-42
-5.73886e-43
3.49539e-44
-5.7494e-43
-3.35691e-48
-6.89105e-42
-3.50215e-44
-2.01747e-40
-1.04138e-42
-1.51463e-39
-1.15772e-41
-2.21534e-39
-3.34404e-40
-1.91985e-37
-3.22827e-40
-7.07046e-40
3.35447e-40
7.07045e-40
6.68878e-40
1.91985e-37
3.35447e-40
2.21482e-39
-3.22829e-40
1.51129e-39
-3.34424e-40
-1.23287e-41
-1.21876e-41
1.03497e-42
-1.00581e-40
1.25253e-41
-2.42321e-39
3.59002e-40
-4.59122e-39
3.36038e-40
-2.99843e-50
-7.08703e-40
4.59122e-39
-7.08703e-40
2.42321e-39
3.36038e-40
1.00582e-40
3.59002e-40
1.2176e-41
1.2527e-41
4.76762e-43
1.09676e-42
3.68832e-44
3.68491e-44
1.29154e-45
2.2478e-45
-1.29154e-45
1.46477e-46
-3.68833e-44
2.2478e-45
-4.76765e-43
3.68492e-44
-1.21761e-41
1.09676e-42
-1.00583e-40
1.25271e-41
-2.42325e-39
3.59005e-40
-4.59169e-39
3.36075e-40
-1.2213e-41
-7.07604e-40
4.49016e-39
-6.96139e-40
-1.2213e-41
6.96139e-40
-4.59169e-39
7.07604e-40
-2.42325e-39
-3.36075e-40
-1.00583e-40
-3.59005e-40
-1.21761e-41
-1.25271e-41
-4.76845e-43
-1.09676e-42
-3.82599e-44
-3.67758e-44
-3.83341e-44
3.43108e-48
-4.78136e-43
3.68456e-44
-1.22116e-41
1.09893e-42
-1.01023e-40
1.25617e-41
-2.43495e-39
3.60064e-40
-4.68006e-39
3.47503e-40
-2.33437e-39
-3.61166e-40
2.33437e-39
-7.20203e-40
4.68006e-39
-3.61165e-40
2.43491e-39
3.47504e-40
1.00712e-40
3.60048e-40
1.05112e-41
-1.39284e-42
7.35598e-44
-5.64611e-42
9.10845e-43
-8.0921e-41
2.21001e-41
-1.5019e-40
2.04269e-41
-1.38993e-50
-4.35195e-41
1.5019e-40
-4.35195e-41
8.0921e-41
2.04269e-41
5.64606e-42
2.21001e-41
1.388e-42
9.10977e-43
5.94818e-44
7.84399e-44
5.48539e-45
2.87426e-45
1.96735e-46
1.72985e-46
-1.96735e-46
1.19356e-47
-5.48542e-45
1.72986e-46
-5.94823e-44
2.87427e-45
-1.38801e-42
7.84402e-44
-5.64627e-42
9.10983e-43
-8.09265e-41
2.21003e-41
-1.5025e-40
2.04298e-41
-1.3935e-42
-4.34409e-41
1.44484e-40
-4.26056e-41
-1.3935e-42
4.26056e-41
-1.5025e-40
4.34409e-41
-8.09265e-41
-2.04298e-41
-5.64627e-42
-2.21003e-41
-1.38801e-42
-9.10983e-43
-5.94953e-44
-7.84399e-44
-5.69606e-45
-2.86828e-45
-5.70818e-45
2.76792e-49
-5.9692e-44
2.87397e-45
-1.39329e-42
7.86066e-44
-5.70026e-42
9.13685e-43
-8.22548e-41
2.21759e-41
-1.54502e-40
2.12622e-41
-7.66087e-41
-2.22546e-41
7.66087e-41
-4.43575e-41
1.54502e-40
-2.22546e-41
8.22552e-41
2.12623e-41
5.70942e-42
2.21745e-41
7.63275e-43
-7.58381e-44
1.02038e-44
-2.27474e-43
1.09404e-43
-2.08166e-42
2.59522e-42
-3.76712e-42
2.39696e-42
-1.01467e-51
-5.11291e-42
3.76712e-42
-5.11291e-42
2.08166e-42
2.39696e-42
2.27469e-43
2.59522e-42
7.55166e-44
1.09431e-43
3.56049e-45
1.08741e-44
3.37681e-46
4.07371e-46
1.2804e-47
2.60381e-47
-1.28041e-47
1.81022e-48
-3.37683e-46
2.60381e-47
-3.56052e-45
4.07372e-46
-7.55175e-44
1.08741e-44
-2.27483e-43
1.09432e-43
-2.082e-42
2.59524e-42
-3.77069e-42
2.39736e-42
-7.58552e-44
-5.10201e-42
3.53607e-42
-5.00307e-42
-7.58552e-44
5.00307e-42
-3.77069e-42
5.10201e-42
-2.082e-42
-2.39736e-42
-2.27483e-43
-2.59524e-42
-7.55175e-44
-1.09432e-43
-3.56137e-45
-1.08741e-44
-3.51399e-46
-4.06464e-46
-3.5219e-46
4.29975e-50
-3.57417e-45
4.07326e-46
-7.58415e-44
1.08992e-44
-2.30704e-43
1.09813e-43
-2.15394e-42
2.60571e-42
-3.92231e-42
2.49589e-42
-1.92647e-42
-2.61663e-42
1.92647e-42
-5.21223e-42
3.92231e-42
-2.61663e-42
2.15405e-42
2.4959e-42
2.3189e-43
2.6054e-42
8.982e-44
-6.00724e-45
6.40756e-46
-1.28852e-44
6.73174e-45
-3.73165e-44
1.4752e-43
-5.85924e-44
1.35347e-43
-1.1727e-52
-2.90315e-43
5.85924e-44
-2.90315e-43
3.73164e-44
1.35347e-43
1.28844e-44
1.4752e-43
5.97322e-45
6.73361e-45
2.89567e-46
6.85204e-46
2.92509e-47
2.71053e-47
1.11909e-48
1.74155e-48
-1.11909e-48
1.25634e-49
-2.9251e-47
1.74156e-48
-2.8957e-46
2.71054e-47
-5.9733e-45
6.85207e-46
-1.28856e-44
6.73367e-45
-3.73457e-44
1.47522e-43
-5.88832e-44
1.35374e-43
-6.00255e-45
-2.89628e-43
4.54173e-44
-2.83555e-43
-6.00255e-45
2.83555e-43
-5.88832e-44
2.89628e-43
-3.73457e-44
-1.35374e-43
-1.28856e-44
-1.47522e-43
-5.9733e-45
-6.73367e-45
-2.89646e-46
-6.85204e-46
-3.04519e-47
-2.70424e-47
-3.05228e-47
2.98001e-51
-2.90765e-46
2.71022e-47
-6.00136e-45
6.86879e-46
-1.31458e-44
6.75903e-45
-4.30282e-44
1.4818e-43
-6.5765e-44
1.41421e-43
-3.01438e-44
-1.48869e-43
3.01438e-44
-2.96415e-43
6.57658e-44
-1.48869e-43
4.30488e-44
1.41421e-43
1.33295e-44
1.48157e-43
5.49668e-45
-3.17063e-46
5.42552e-47
-6.0535e-46
5.35826e-46
-3.01687e-46
1.16209e-44
2.32765e-47
1.06579e-44
-7.41168e-54
-2.28751e-44
-2.32766e-47
-2.28751e-44
3.01682e-46
1.06579e-44
6.05297e-46
1.16209e-44
3.15059e-46
5.36031e-46
1.60838e-47
5.78047e-47
1.64727e-48
2.30931e-48
6.52224e-50
1.51816e-49
-6.52227e-50
1.09907e-50
-1.64728e-48
1.51816e-49
-1.60839e-47
2.30932e-48
-3.15064e-46
5.7805e-47
-6.05367e-46
5.36036e-46
-3.03334e-46
1.1621e-44
7.12297e-48
1.06603e-44
-3.16711e-46
-2.28172e-44
-6.44727e-46
-2.23368e-44
-3.16711e-46
2.23368e-44
7.12297e-48
2.28172e-44
-3.03334e-46
-1.06603e-44
-6.05367e-46
-1.1621e-44
-3.15064e-46
-5.36036e-46
-1.60884e-47
-5.78047e-47
-1.71728e-48
-2.30381e-48
-1.72142e-48
2.62478e-52
-1.61536e-47
2.30904e-48
-3.16642e-46
5.79508e-47
-6.19799e-46
5.38194e-46
-6.0224e-46
1.16765e-44
-2.81463e-46
1.11383e-44
3.05712e-48
-1.17346e-44
-3.05497e-48
-2.33577e-44
2.81516e-46
-1.17346e-44
6.03626e-46
1.11383e-44
6.31614e-46
1.16743e-44
4.3266e-46
-2.03079e-47
1.20303e-47
-3.67402e-47
2.94615e-47
2.50297e-47
6.22067e-46
8.40959e-47
5.68138e-46
1.37648e-54
-1.22374e-45
-8.40959e-47
-1.22374e-45
-2.50295e-47
5.68139e-46
3.67281e-47
6.221e-46
2.01815e-47
3.0073e-47
1.04043e-48
3.28364e-48
1.08954e-49
1.35713e-49
4.33375e-51
8.93827e-51
-4.33376e-51
6.62428e-52
-1.08954e-49
8.93829e-51
-1.04044e-48
1.35713e-49
-2.01818e-47
3.28366e-48
-3.67327e-47
3.00733e-47
2.49203e-47
6.22108e-46
8.30508e-47
5.68275e-46
-2.02908e-47
-1.22045e-45
-1.21869e-46
-1.19353e-45
-2.02908e-47
1.19353e-45
8.30508e-47
1.22045e-45
2.49203e-47
-5.68275e-46
-3.67327e-47
-6.22108e-46
-2.01818e-47
-3.00733e-47
-1.04074e-48
-3.28364e-48
-1.13609e-49
-1.35381e-49
-1.13885e-49
1.57764e-53
-1.04507e-48
1.35697e-49
-2.02861e-47
3.29223e-48
-3.76639e-47
3.02001e-47
5.78383e-48
6.25256e-46
6.66134e-47
5.95056e-46
4.25119e-47
-6.28557e-46
-4.25117e-47
-1.25078e-45
-6.66092e-47
-6.28557e-46
-5.67337e-48
5.95051e-46
3.85695e-47
6.25113e-46
2.42143e-47
-2.52879e-49
4.28941e-47
-1.84034e-48
-7.89448e-48
1.79722e-48
3.88511e-47
5.16857e-48
3.59646e-47
3.68382e-53
-7.75545e-47
-5.1679e-48
-7.75536e-47
-1.7848e-48
3.59875e-47
1.78982e-48
3.94228e-47
1.00136e-48
1.91941e-48
5.32521e-50
2.1428e-49
5.59583e-51
8.90538e-51
2.27543e-52
5.90423e-52
-2.27544e-52
4.38386e-53
-5.59586e-51
5.90424e-52
-5.32527e-50
8.90542e-51
-1.00137e-48
2.14281e-49
-1.79007e-48
1.91943e-48
1.77918e-48
3.94234e-47
5.11441e-48
3.59965e-47
-1.00697e-48
-7.73387e-47
-7.01123e-48
-7.56253e-47
-1.00697e-48
7.56253e-47
5.11441e-48
7.73387e-47
1.77918e-48
-3.59965e-47
-1.79007e-48
-3.94234e-47
-1.00137e-48
-1.91943e-48
-5.32684e-50
-2.1428e-49
-5.8402e-51
-8.88343e-51
-5.85467e-51
1.04277e-54
-5.34958e-50
8.9043e-51
-1.00673e-48
2.14848e-49
-1.83771e-48
1.92775e-48
8.31324e-49
3.96288e-47
4.33155e-48
3.7701e-47
2.62115e-48
-3.98442e-47
-2.62114e-48
-7.92754e-47
-4.33131e-48
-3.98442e-47
-8.25193e-49
3.77006e-47
1.88744e-48
3.96186e-47
1.53848e-48
5.17791e-47
4.13679e-45
-1.60269e-48
-2.58616e-46
4.71941e-49
-1.34631e-47
3.17418e-49
1.29432e-48
8.79585e-52
-3.88013e-48
-2.99694e-49
-3.86289e-48
-1.07019e-49
1.78788e-48
9.71386e-50
1.96435e-48
5.46434e-50
9.86058e-50
2.92242e-51
1.10379e-50
3.08965e-52
4.68944e-52
1.26026e-53
3.10101e-53
-1.26026e-53
2.33706e-54
-3.08967e-52
3.10102e-53
-2.92245e-51
4.68946e-52
-5.46442e-50
1.1038e-50
-9.71521e-50
9.86069e-50
1.0671e-49
1.96438e-48
2.96792e-49
1.78836e-48
-5.49532e-50
-3.85131e-48
-3.99802e-49
-3.76331e-48
-5.49532e-50
3.76331e-48
2.96792e-49
3.85131e-48
1.0671e-49
-1.78836e-48
-9.71521e-50
-1.96438e-48
-5.46442e-50
-9.86069e-50
-2.92332e-51
-1.10379e-50
-3.22499e-52
-4.67774e-52
-3.23299e-52
5.53007e-56
-2.93592e-51
4.68887e-52
-5.49397e-50
1.10677e-50
-9.97647e-50
9.90449e-50
5.50024e-50
1.97495e-48
2.54606e-49
1.8759e-48
1.52141e-49
-1.98604e-48
-1.5214e-49
-3.95083e-48
-2.54592e-49
-1.98605e-48
-5.46352e-50
1.87588e-48
1.02727e-49
1.97439e-48
7.90394e-50
3.05509e-45
-9.5041e-45
1.4997e-46
-5.04598e-46
7.47175e-48
-2.35812e-47
3.28768e-49
-6.24746e-49
1.16074e-50
-2.69687e-49
-1.35124e-50
-2.43494e-49
-5.00807e-51
1.12282e-49
4.44312e-51
1.23447e-49
2.50907e-51
6.22979e-51
1.36995e-52
7.01465e-52
1.44499e-53
2.9903e-53
5.98223e-55
1.97416e-54
-5.98225e-55
1.48879e-55
-1.445e-53
1.97416e-54
-1.36996e-52
2.99031e-53
-2.50909e-51
7.01469e-52
-4.44332e-51
6.22988e-51
5.00707e-51
1.2345e-49
1.37997e-50
1.12337e-49
-2.52355e-51
-2.42014e-49
-1.85177e-50
-2.36458e-49
-2.52355e-51
2.36458e-49
1.37997e-50
2.42014e-49
5.00707e-51
-1.12337e-49
-4.44332e-51
-1.2345e-49
-2.5091e-51
-6.22988e-51
-1.37037e-52
-7.01465e-52
-1.50921e-53
-2.98284e-53
-1.51298e-53
3.50305e-57
-1.37635e-52
2.98993e-53
-2.52291e-51
7.03361e-52
-4.56582e-51
6.25781e-51
2.63565e-51
1.24121e-49
1.18806e-50
1.17863e-49
7.07833e-51
-1.24826e-49
-7.07829e-51
-2.48302e-49
-1.18799e-50
-1.24826e-49
-2.61772e-51
1.17861e-49
4.71092e-51
1.24084e-49
4.98917e-51
1.54547e-39
-4.76064e-38
1.1845e-39
-1.05798e-38
1.11234e-40
-9.41903e-39
3.45326e-41
-3.72642e-40
1.65342e-42
-3.36482e-41
1.6145e-43
-1.25844e-42
6.78592e-45
-7.91022e-44
4.39289e-46
-2.84041e-45
1.68518e-47
-1.42291e-46
8.47588e-49
-4.84774e-48
2.95421e-50
-2.00325e-49
2.29021e-51
4.60954e-51
4.99265e-52
-3.73852e-51
-7.26408e-52
-7.40162e-51
-3.17461e-52
3.52553e-51
2.85435e-52
3.89718e-51
1.62902e-52
2.22913e-52
9.85634e-54
2.58957e-53
1.06456e-54
1.22898e-54
5.14335e-56
8.38426e-56
3.3786e-57
3.47844e-57
1.40748e-58
1.76047e-58
6.94703e-60
6.51447e-60
5.12153e-61
2.59501e-61
6.95112e-60
-2.59806e-61
1.40757e-58
-6.52269e-60
3.37564e-57
-1.76288e-58
5.12098e-56
-3.48395e-57
1.05419e-54
-8.39824e-56
9.44339e-54
-1.23118e-54
1.47478e-52
-2.59348e-53
-2.08774e-52
-2.22654e-52
-1.69662e-50
-3.87298e-51
-4.58031e-49
-2.21377e-51
-1.43317e-47
5.26802e-50
-3.39679e-46
1.35439e-48
-1.00156e-44
4.07608e-47
-1.99982e-43
9.72503e-46
-5.59135e-42
2.61732e-44
-8.90254e-41
3.90774e-43
-2.39251e-39
-1.42913e-42
-2.65293e-38
-1.06513e-39
-6.7376e-37
-7.99493e-38
-6.48707e-37
-4.35252e-36
6.51123e-37
-1.93972e-36
-4.36878e-36
6.5776e-37
1.08944e-37
-6.41811e-38
6.73119e-38
-4.774e-38
3.18083e-39
-9.83304e-39
4.29585e-40
-3.69423e-40
1.87789e-41
-3.25074e-41
1.54422e-42
-1.20875e-42
6.31585e-44
-7.59405e-44
3.84313e-45
-2.72152e-45
1.46432e-46
-1.36382e-46
7.19694e-48
-4.63346e-48
2.54946e-49
-1.9541e-49
1.06558e-50
-5.88802e-51
3.62063e-52
-3.42989e-52
-6.36272e-54
-2.46634e-52
-7.96342e-54
1.14068e-52
7.50186e-54
1.26373e-52
4.28367e-54
7.23991e-54
2.62861e-55
8.33171e-55
2.8375e-56
3.94977e-56
1.38426e-57
2.66267e-57
9.06098e-59
1.10042e-58
3.7958e-60
5.497e-60
1.86348e-61
2.02151e-61
1.37978e-62
7.94566e-63
1.87798e-61
-7.94581e-63
3.85013e-60
-2.02019e-61
9.26955e-59
-5.48806e-60
1.45871e-57
-1.09555e-58
3.11044e-56
-2.64078e-57
3.54075e-55
-3.85904e-56
7.43886e-54
-7.97976e-55
1.04237e-52
-5.99011e-54
3.12346e-51
-8.23887e-53
8.62305e-50
1.26365e-51
2.60262e-48
4.50221e-50
6.28369e-47
1.24055e-48
1.76757e-45
3.74291e-47
3.6202e-44
8.95816e-46
9.53442e-43
2.4201e-44
1.57001e-41
3.74844e-43
3.90529e-40
-2.77013e-44
4.53036e-39
-8.82182e-40
1.03398e-37
-6.75154e-38
1.58615e-37
-3.7183e-36
2.20581e-38
-6.22095e-34
-3.7344e-36
-3.74658e-38
1.02319e-35
-5.31922e-36
1.28451e-37
-6.63752e-38
9.53369e-38
7.6592e-39
1.30788e-38
3.37669e-40
5.043e-40
3.22589e-41
4.18605e-41
1.21043e-42
1.59324e-42
7.62344e-44
9.75441e-44
2.73235e-45
3.54444e-45
1.36867e-46
1.74913e-46
4.64856e-48
5.99034e-48
1.96115e-49
2.5034e-49
6.27605e-51
8.0388e-51
2.2711e-52
2.92815e-52
4.88566e-55
8.57349e-54
3.27704e-54
5.03423e-55
3.38655e-54
1.3198e-55
1.9681e-55
7.83396e-57
2.25495e-56
8.18422e-58
1.07974e-57
3.96826e-59
7.23666e-59
2.56059e-60
3.00751e-60
1.06684e-61
1.49196e-61
5.17797e-63
5.49714e-63
7.74721e-64
2.14164e-64
2.2009e-62
-2.25228e-64
7.86796e-61
-5.96414e-63
2.96082e-59
-1.69096e-61
1.04902e-57
-3.80635e-60
3.8258e-56
-1.04285e-58
1.29e-54
-2.264e-57
4.44131e-53
-6.68209e-56
1.37921e-51
-1.70238e-54
4.42673e-50
-5.59568e-53
1.23678e-48
-1.6242e-51
3.68584e-47
-5.28088e-50
9.06582e-46
-1.45403e-48
2.50834e-44
-4.41085e-47
5.27573e-43
-1.04823e-45
1.35916e-41
-2.82732e-44
2.32796e-40
-4.0387e-43
5.62224e-39
3.20272e-42
6.97475e-38
1.2982e-39
1.53066e-36
9.62962e-38
1.51985e-36
5.23594e-36
9.05843e-36
6.94363e-34
5.25125e-36
-1.24984e-36
1.19851e-37
-4.70609e-38
5.59348e-38
-2.98166e-38
2.7809e-39
8.60444e-39
3.89087e-40
3.59737e-40
1.73512e-41
3.34412e-41
1.44931e-42
1.25489e-42
5.98616e-44
7.89765e-44
3.67246e-45
2.83643e-45
1.40738e-46
1.42103e-46
6.95176e-48
4.8342e-48
2.47203e-49
2.03973e-49
1.03401e-50
6.52596e-51
3.41441e-52
2.39604e-52
1.24627e-53
7.00371e-54
3.76995e-55
3.23142e-55
1.78882e-56
1.04339e-55
3.45424e-57
5.88334e-57
2.02463e-58
6.50052e-58
2.06593e-59
3.09657e-59
1.00543e-60
2.0438e-60
6.42158e-62
8.45234e-62
2.68081e-63
4.13597e-63
1.28575e-64
1.51393e-64
4.87477e-66
5.6116e-66
-8.55158e-65
-1.56345e-65
-6.00916e-63
-5.77549e-64
-3.20261e-61
-2.23429e-62
-1.31723e-59
-8.18422e-61
-5.70737e-58
-3.13688e-59
-1.94537e-56
-1.12165e-57
-7.71298e-55
-4.13585e-56
-2.29241e-53
-1.39269e-54
-8.56455e-52
-4.83973e-53
-2.22327e-50
-1.49202e-51
-7.90001e-49
-4.84297e-50
-1.75745e-47
-1.33646e-48
-5.97825e-46
-4.03521e-47
-1.10186e-44
-9.61831e-46
-3.62723e-43
-2.57354e-44
-5.24006e-42
-3.64356e-43
-1.69932e-40
3.57334e-42
-1.67187e-39
1.22842e-39
-5.33057e-38
9.05324e-38
7.56254e-39
4.88899e-36
1.73066e-37
2.87767e-36
4.90502e-36
1.1547e-37
7.2621e-39
-3.86428e-38
-4.773e-39
-1.18839e-39
-9.99034e-41
2.43275e-40
1.31189e-41
1.24207e-41
8.94633e-43
1.19906e-42
1.11005e-43
4.92364e-44
5.02801e-45
3.13275e-45
3.48349e-46
1.19007e-46
1.3812e-47
5.98898e-48
7.17863e-49
2.11747e-49
2.58463e-50
8.95383e-51
1.10494e-51
2.94555e-52
3.65478e-53
1.0831e-53
1.34439e-54
3.27092e-55
4.09368e-56
1.30565e-56
1.47867e-57
2.75567e-57
1.19176e-58
1.53229e-58
6.13995e-60
1.64418e-59
5.57199e-61
7.86336e-61
2.65535e-62
5.1304e-62
1.65176e-63
2.12653e-63
6.82816e-65
1.03023e-64
-2.79775e-67
3.77203e-66
-1.52567e-64
3.0888e-67
-6.61844e-63
7.49451e-66
-2.66872e-61
3.28522e-64
-1.08417e-59
1.43024e-62
-4.02263e-58
5.77728e-61
-1.53092e-56
2.35184e-59
-5.18585e-55
8.71704e-58
-1.8484e-53
3.32247e-56
-5.65503e-52
1.12213e-54
-1.88814e-50
4.00738e-53
-5.13928e-49
1.22014e-51
-1.60937e-47
4.08655e-50
-3.81346e-46
1.10425e-48
-1.12376e-44
3.47625e-47
-2.24305e-43
8.15235e-46
-6.26703e-42
2.42984e-44
-9.97339e-41
4.84142e-43
-2.67811e-39
1.42822e-41
-2.96722e-38
2.68857e-40
-7.52966e-37
9.34548e-39
-7.25038e-37
2.1802e-37
7.27558e-37
5.64928e-36
2.18608e-37
7.35862e-37
1.95841e-40
-5.12764e-39
-1.71626e-40
-1.5062e-40
-5.22533e-42
8.83962e-42
2.27157e-43
6.3299e-43
2.31491e-44
8.85095e-44
3.33022e-45
3.92586e-45
1.63415e-46
2.80669e-46
1.16225e-47
1.09984e-47
4.82239e-49
5.80971e-49
2.52862e-50
2.07869e-50
9.38556e-52
8.97323e-52
4.02737e-53
2.95828e-53
1.36126e-54
1.09522e-54
5.01687e-56
3.3296e-56
1.55405e-57
1.14929e-57
5.40377e-59
9.49387e-59
3.35724e-60
4.67966e-60
1.61315e-61
4.42621e-61
1.34681e-62
2.07515e-62
6.34791e-64
1.31716e-63
3.86392e-65
5.41536e-65
1.59739e-66
2.58115e-66
2.11344e-67
1.01254e-67
6.00115e-66
3.57158e-67
2.59434e-64
1.63278e-65
1.05077e-62
7.1024e-64
4.25021e-61
3.07679e-62
1.58413e-59
1.23844e-60
5.98447e-58
5.02978e-59
2.03596e-56
1.86207e-57
7.17359e-55
7.08761e-56
2.20285e-53
2.3936e-54
7.22937e-52
8.53819e-53
1.97238e-50
2.60087e-51
6.02237e-49
8.70003e-50
1.42632e-47
2.35285e-48
4.0494e-46
7.39586e-47
8.02889e-45
1.7362e-45
2.11998e-43
5.16215e-44
3.30295e-42
1.02592e-42
8.09735e-41
2.98902e-41
8.47071e-40
5.37309e-40
1.82547e-38
1.77635e-38
1.74967e-38
3.71249e-37
-1.74612e-38
9.62324e-36
3.71327e-37
-1.78134e-38
1.54415e-41
-1.61935e-40
-1.56821e-41
-5.55028e-42
-5.23374e-43
1.36872e-43
-1.66975e-44
1.601e-44
2.33346e-46
2.67622e-45
1.31013e-46
1.29095e-46
7.4888e-48
9.52143e-48
6.06312e-49
3.91141e-49
2.621e-50
2.08752e-50
1.43759e-51
7.70493e-52
5.41389e-53
3.33943e-53
2.36368e-54
1.12508e-54
8.01454e-56
4.1719e-56
2.96653e-57
1.28991e-57
9.17277e-59
4.35962e-59
3.05973e-60
2.70876e-60
1.30482e-61
1.24663e-61
5.30918e-63
1.07271e-62
3.56569e-64
4.97369e-64
1.59608e-65
3.083e-65
9.25381e-67
1.26414e-66
1.64778e-67
5.94647e-68
5.88123e-66
4.23353e-69
2.56046e-64
9.75963e-68
1.10873e-62
4.50601e-66
4.46995e-61
1.96015e-64
1.81391e-59
8.49734e-63
6.7305e-58
3.42046e-61
2.55803e-56
1.39044e-59
8.66665e-55
5.14775e-58
3.08373e-53
1.96166e-56
9.43713e-52
6.62489e-55
3.14383e-50
2.36668e-53
8.56028e-49
7.20948e-52
2.67272e-47
2.41699e-50
6.33576e-46
6.54845e-49
1.85967e-44
2.08e-47
3.71335e-43
5.1047e-46
1.03194e-41
1.75805e-44
1.64234e-40
6.16128e-43
4.37661e-39
3.86153e-41
4.84418e-38
2.53178e-39
1.21465e-36
1.60209e-37
1.17051e-36
7.98959e-36
-1.17016e-36
1.97317e-35
7.9855e-36
-1.18543e-36
4.74322e-43
-1.28539e-41
-4.88765e-43
-4.32419e-43
-1.82725e-44
-1.43644e-44
-8.40155e-46
8.29499e-47
-7.10413e-48
1.0333e-46
3.15282e-48
5.76554e-48
2.07207e-49
4.85591e-49
1.78824e-50
2.07507e-50
8.09978e-52
1.15831e-51
4.51785e-53
4.33699e-53
1.74811e-54
1.91221e-54
7.67826e-56