/*--------------------------------*- C++ -*----------------------------------*\
| =========                 |                                                 |
| \\      /  F ield         | OpenFOAM: The Open Source CFD Toolbox           |
|  \\    /   O peration     | Version:  2.4.0                                 |
|   \\  /    A nd           | Web:      www.OpenFOAM.org                      |
|    \\/     M anipulation  |                                                 |
\*---------------------------------------------------------------------------*/
FoamFile
{
    version     2.0;
    format      ascii;
    class       volVectorField;
    location    "0.15";
    object      U;
}
// * * * * * * * * * * * * * * * * * * * * * * * * * * * * * * * * * * * * * //

dimensions      [0 1 -1 0 0 0 0];

internalField   nonuniform List<vector> 
7700
(
(2.5989e-37 5.49185e-38 0)
(6.94197e-36 6.18211e-37 0)
(4.61915e-35 1.60937e-35 0)
(1.5297e-33 1.49638e-35 0)
(1.49022e-33 -3.17341e-35 0)
(-1.4902e-33 -3.17321e-35 0)
(-1.52943e-33 1.50222e-35 0)
(-3.89991e-35 1.67684e-35 0)
(4.62139e-35 1.73324e-35 0)
(1.57591e-33 3.11723e-35 0)
(3.02711e-33 -1.60916e-35 0)
(5.34046e-35 -4.6698e-35 0)
(-1.43681e-33 1.49638e-35 0)
(1.49743e-33 3.10575e-35 0)
(1.52997e-33 -1.50223e-35 0)
(4.62139e-35 -1.60959e-35 0)
(6.94322e-36 -6.18424e-37 0)
(2.49184e-37 -5.63057e-38 0)
(2.15664e-38 -2.07317e-39 0)
(7.88581e-40 -1.31042e-40 0)
(4.94417e-41 -4.65951e-42 0)
(1.75327e-42 -2.34333e-43 0)
(8.78183e-44 -7.9183e-45 0)
(3.08598e-45 -3.24397e-46 0)
(3.08966e-45 3.2479e-46 0)
(8.79392e-44 7.92857e-45 0)
(1.7561e-42 2.34658e-43 0)
(4.95266e-41 4.6671e-42 0)
(7.90247e-40 1.31269e-40 0)
(2.16141e-38 2.0776e-39 0)
(2.49923e-37 5.64321e-38 0)
(6.96399e-36 6.20366e-37 0)
(4.64414e-35 1.61501e-35 0)
(1.53666e-33 1.55842e-35 0)
(1.53666e-33 -1.55842e-35 0)
(4.64414e-35 -1.61501e-35 0)
(6.96399e-36 -6.20366e-37 0)
(2.49923e-37 -5.64321e-38 0)
(2.16141e-38 -2.0776e-39 0)
(7.90247e-40 -1.31269e-40 0)
(4.95266e-41 -4.6671e-42 0)
(1.75607e-42 -2.34709e-43 0)
(8.76435e-44 -9.02769e-45 0)
(-2.45361e-45 -9.08811e-45 0)
(1.69593e-46 -1.63629e-43 0)
(5.74817e-45 -6.89193e-45 0)
(1.77925e-38 -2.63026e-38 0)
(4.19287e-37 -3.11427e-37 0)
(3.12122e-36 -8.11831e-36 0)
(7.38226e-35 -7.54849e-36 0)
(7.11047e-35 1.60073e-35 0)
(-7.11032e-35 1.60063e-35 0)
(-7.38038e-35 -7.57753e-36 0)
(-2.68448e-36 -8.45787e-36 0)
(3.12271e-36 -8.74236e-36 0)
(7.69453e-35 -1.57239e-35 0)
(1.45364e-34 8.11728e-36 0)
(3.55934e-36 2.35558e-35 0)
(-6.75453e-35 -7.54849e-36 0)
(7.15429e-35 -1.56668e-35 0)
(7.38414e-35 7.57759e-36 0)
(3.12271e-36 8.1194e-36 0)
(4.19383e-37 3.11545e-37 0)
(1.73625e-38 2.80155e-38 0)
(1.43481e-39 1.02681e-39 0)
(5.70532e-41 6.44357e-41 0)
(3.4983e-42 2.28183e-42 0)
(1.31333e-43 1.14266e-43 0)
(6.50629e-45 3.84836e-45 0)
(2.38427e-46 1.57238e-46 0)
(2.3872e-46 -1.57427e-46 0)
(6.51559e-45 -3.85333e-45 0)
(1.31552e-43 -1.14423e-43 0)
(3.50458e-42 -2.28551e-42 0)
(5.7178e-41 -6.45461e-41 0)
(1.43818e-39 -1.02897e-39 0)
(1.74161e-38 -2.80777e-38 0)
(4.20761e-37 -3.12507e-37 0)
(3.13863e-36 -8.14639e-36 0)
(7.42433e-35 -7.86099e-36 0)
(7.42433e-35 7.86099e-36 0)
(3.13863e-36 8.14639e-36 0)
(4.20761e-37 3.12507e-37 0)
(1.74161e-38 2.80777e-38 0)
(1.43818e-39 1.02897e-39 0)
(5.7178e-41 6.45461e-41 0)
(3.50454e-42 2.28544e-42 0)
(1.30737e-43 1.13368e-43 0)
(-1.44475e-47 -1.92345e-44 0)
(-1.2156e-43 -1.84436e-43 0)
(9.6171e-46 -3.52673e-42 0)
(1.28346e-43 -1.45338e-43 0)
(2.30845e-39 -1.73693e-39 0)
(4.72048e-38 -2.14469e-38 0)
(1.51059e-37 -4.69447e-37 0)
(2.41117e-36 -4.30063e-37 0)
(2.30541e-36 9.22898e-37 0)
(-2.30518e-36 9.22823e-37 0)
(-2.40883e-36 -4.32001e-37 0)
(-1.01722e-37 -4.92765e-37 0)
(1.5128e-37 -5.12426e-37 0)
(2.56245e-36 -9.03316e-37 0)
(4.7659e-36 4.69372e-37 0)
(2.00598e-37 1.35296e-36 0)
(-2.10479e-36 -4.30063e-37 0)
(2.35494e-36 -8.9951e-37 0)
(2.41352e-36 4.32005e-37 0)
(1.5128e-37 4.69526e-37 0)
(4.72127e-38 2.14549e-38 0)
(2.12431e-39 1.86349e-39 0)
(2.12069e-40 7.45407e-41 0)
(8.67139e-42 4.5769e-42 0)
(5.69949e-43 1.71778e-43 0)
(2.15623e-44 8.50684e-45 0)
(1.09783e-45 2.99056e-46 0)
(4.01587e-47 1.21481e-47 0)
(4.0208e-47 -1.21632e-47 0)
(1.0994e-45 -2.99454e-46 0)
(2.15991e-44 -8.51899e-45 0)
(5.71008e-43 -1.72064e-43 0)
(8.69185e-42 -4.5851e-42 0)
(2.12617e-40 -7.47039e-41 0)
(2.13241e-39 -1.8679e-39 0)
(4.7416e-38 -2.15248e-38 0)
(1.53191e-37 -4.71315e-37 0)
(2.45859e-36 -4.51588e-37 0)
(2.45859e-36 4.51588e-37 0)
(1.53191e-37 4.71315e-37 0)
(4.7416e-38 2.15248e-38 0)
(2.13241e-39 1.8679e-39 0)
(2.12617e-40 7.47039e-41 0)
(8.69179e-42 4.58505e-42 0)
(5.7021e-43 1.70707e-43 0)
(4.15779e-45 -1.06655e-44 0)
(-1.3801e-43 -4.20598e-43 0)
(-2.65534e-42 -3.37524e-42 0)
(1.92972e-44 -6.47867e-41 0)
(2.7886e-42 -2.66307e-42 0)
(1.38798e-40 -2.60399e-40 0)
(2.55032e-39 -2.73916e-39 0)
(5.42007e-39 -5.87463e-38 0)
(6.02005e-38 -5.37919e-38 0)
(5.72171e-38 1.15568e-37 0)
(-5.72029e-38 1.15557e-37 0)
(-6.00609e-38 -5.4082e-38 0)
(-2.74272e-39 -6.17656e-38 0)
(5.43367e-39 -6.42382e-38 0)
(6.56342e-38 -1.13108e-37 0)
(1.20094e-37 5.87349e-38 0)
(8.10981e-39 1.6936e-37 0)
(-4.91062e-38 -5.37919e-38 0)
(5.99068e-38 -1.12538e-37 0)
(6.03407e-38 5.40827e-38 0)
(5.43367e-39 5.87585e-38 0)
(2.55073e-39 2.74065e-39 0)
(1.26626e-40 2.78724e-40 0)
(1.30291e-41 1.14172e-41 0)
(5.64231e-43 7.50546e-43 0)
(3.72839e-44 2.83871e-44 0)
(1.46554e-45 1.44483e-45 0)
(7.46455e-47 5.06904e-47 0)
(2.8052e-48 2.07586e-48 0)
(2.80871e-48 -2.07842e-48 0)
(7.47556e-47 -5.07578e-47 0)
(1.46811e-45 -1.44691e-45 0)
(3.73558e-44 -2.84356e-44 0)
(5.65621e-43 -7.5194e-43 0)
(1.30649e-41 -1.14442e-41 0)
(1.27153e-40 -2.79446e-40 0)
(2.56319e-39 -2.75132e-39 0)
(5.54719e-39 -5.90257e-38 0)
(6.27637e-38 -5.65432e-38 0)
(6.27637e-38 5.65432e-38 0)
(5.54719e-39 5.90257e-38 0)
(2.56319e-39 2.75132e-39 0)
(1.27153e-40 2.79446e-40 0)
(1.30648e-41 1.14441e-41 0)
(5.64594e-43 7.50897e-43 0)
(2.28535e-44 2.41202e-45 0)
(-3.1658e-43 -3.65332e-43 0)
(-2.54413e-42 -8.23473e-42 0)
(-4.87937e-41 -6.61708e-41 0)
(3.20156e-43 -1.31214e-39 0)
(5.10319e-41 -5.23344e-41 0)
(1.08934e-41 -2.38771e-41 0)
(2.01306e-40 -1.65937e-40 0)
(2.49368e-40 -3.25968e-39 0)
(8.93605e-40 -2.96104e-39 0)
(8.36161e-40 6.40324e-39 0)
(-8.34932e-40 6.40251e-39 0)
(-8.82233e-40 -2.97891e-39 0)
(-3.80645e-41 -3.44155e-39 0)
(2.50512e-40 -3.59032e-39 0)
(1.14409e-39 -6.25527e-39 0)
(1.94096e-39 3.25841e-39 0)
(4.61678e-40 9.36426e-39 0)
(-3.74383e-40 -2.96101e-39 0)
(1.0485e-39 -6.22016e-39 0)
(9.04976e-40 2.97896e-39 0)
(2.50512e-40 3.25995e-39 0)
(2.01051e-40 1.65238e-40 0)
(1.02208e-41 1.71622e-41 0)
(1.12622e-42 7.43865e-43 0)
(4.92779e-44 4.91415e-44 0)
(3.33779e-45 1.93117e-45 0)
(1.31591e-46 9.8326e-47 0)
(6.75245e-48 3.54428e-48 0)
(2.5329e-49 1.44934e-49 0)
(2.53605e-49 -1.45116e-49 0)
(6.76237e-48 -3.54908e-48 0)
(1.31824e-46 -9.8471e-47 0)
(3.3443e-45 -1.93456e-45 0)
(4.94028e-44 -4.92363e-44 0)
(1.12942e-42 -7.45698e-43 0)
(1.02668e-41 -1.72094e-41 0)
(2.02128e-40 -1.65933e-40 0)
(2.596e-40 -3.27636e-39 0)
(1.09571e-39 -3.12694e-39 0)
(1.09571e-39 3.12694e-39 0)
(2.596e-40 3.27636e-39 0)
(2.02128e-40 1.65933e-40 0)
(1.02667e-41 1.72094e-41 0)
(1.12864e-42 7.44868e-43 0)
(2.971e-44 3.34073e-44 0)
(-2.74003e-43 -3.93357e-43 0)
(-6.22426e-42 -5.58954e-42 0)
(-4.98944e-41 -1.26007e-40 0)
(-9.88614e-40 -1.03009e-39 0)
(5.68322e-42 -2.05029e-38 0)
(1.02965e-39 -8.20267e-40 0)
(-1.17256e-41 -1.28983e-40 0)
(1.61963e-41 -2.84543e-41 0)
(1.1144e-41 -2.74183e-40 0)
(-2.84094e-42 -2.39912e-40 0)
(-3.7123e-42 5.17804e-40 0)
(3.80578e-42 5.178e-40 0)
(3.87098e-42 -2.409e-40 0)
(5.79025e-43 -2.7846e-40 0)
(1.06221e-41 -2.9051e-40 0)
(7.38117e-42 -5.05888e-40 0)
(4.15667e-42 2.63432e-40 0)
(2.17509e-41 7.57215e-40 0)
(2.54907e-41 -2.39347e-40 0)
(7.46096e-42 -5.02844e-40 0)
(-2.60818e-42 2.40904e-40 0)
(1.06221e-41 2.63567e-40 0)
(1.05684e-41 1.34758e-41 0)
(5.66574e-43 1.48737e-42 0)
(6.33453e-44 6.50788e-44 0)
(2.87164e-45 4.40569e-45 0)
(1.95009e-46 1.73648e-46 0)
(7.87594e-48 8.90736e-48 0)
(4.03673e-49 3.20505e-49 0)
(1.53915e-50 1.30919e-50 0)
(1.54108e-50 -1.31081e-50 0)
(4.04275e-49 -3.20936e-49 0)
(7.89008e-48 -8.92046e-48 0)
(1.95397e-46 -1.73955e-46 0)
(2.87911e-45 -4.41427e-45 0)
(6.35324e-44 -6.52435e-44 0)
(5.69249e-43 -1.4916e-42 0)
(1.06288e-41 -1.35364e-41 0)
(1.1125e-41 -2.64989e-40 0)
(7.38786e-42 -2.52883e-40 0)
(7.38786e-42 2.52883e-40 0)
(1.1125e-41 2.64989e-40 0)
(1.06288e-41 1.35364e-41 0)
(5.68621e-43 1.4911e-42 0)
(5.15444e-44 5.13199e-44 0)
(-2.96419e-43 -2.60994e-43 0)
(-4.22884e-42 -6.78921e-42 0)
(-9.52933e-41 -9.63201e-41 0)
(-7.77026e-40 -2.24914e-39 0)
(-1.54546e-38 -1.86465e-38 0)
(7.02952e-41 -3.89621e-37 0)
(1.59986e-38 -1.49595e-38 0)
(-1.98075e-40 -2.37356e-39 0)
(9.15185e-41 -2.41468e-40 0)
(1.16811e-41 -1.77887e-40 0)
(6.51022e-42 -2.12139e-41 0)
(-1.07981e-42 2.64426e-41 0)
(1.55893e-42 2.73503e-41 0)
(1.58839e-42 -1.27e-41 0)
(1.08632e-43 -1.47842e-41 0)
(6.08902e-43 -1.54532e-41 0)
(-9.36567e-43 -2.6732e-41 0)
(-2.33874e-42 1.39472e-41 0)
(1.32149e-42 4.00067e-41 0)
(2.82793e-42 -1.26096e-41 0)
(-7.89086e-43 -2.65606e-41 0)
(-1.50453e-42 1.26974e-41 0)
(6.08896e-43 1.3955e-41 0)
(6.76447e-43 7.49353e-43 0)
(3.65544e-44 8.37267e-44 0)
(4.18661e-45 3.7946e-45 0)
(1.9076e-46 2.57522e-46 0)
(1.30482e-47 1.03982e-47 0)
(5.27676e-49 5.32754e-49 0)
(2.70201e-50 1.94878e-50 0)
(1.0281e-51 7.93619e-52 0)
(1.02938e-51 -7.94612e-52 0)
(2.70601e-50 -1.95142e-50 0)
(5.28622e-49 -5.33548e-49 0)
(1.30743e-47 -1.04168e-47 0)
(1.9126e-46 -2.58035e-46 0)
(4.19912e-45 -3.80446e-45 0)
(3.6732e-44 -8.39738e-44 0)
(6.80442e-43 -7.52889e-43 0)
(6.41238e-43 -1.40349e-41 0)
(-8.65022e-43 -1.33625e-41 0)
(-8.65022e-43 1.33625e-41 0)
(6.41222e-43 1.40349e-41 0)
(6.80063e-43 7.52641e-43 0)
(2.61785e-44 7.81969e-44 0)
(-1.96904e-43 -1.5691e-43 0)
(-5.14277e-42 -3.07216e-42 0)
(-7.29036e-41 -7.87455e-41 0)
(-1.70142e-39 -1.13559e-39 0)
(-1.40638e-38 -2.67e-38 0)
(-2.93704e-37 -2.32678e-37 0)
(1.00112e-39 -4.87136e-36 0)
(3.02534e-37 -1.89689e-37 0)
(-3.5438e-39 -3.13355e-38 0)
(1.81994e-39 -4.11723e-39 0)
(1.84286e-40 -3.12142e-39 0)
(1.23651e-40 -1.5786e-40 0)
(6.40233e-42 -1.55624e-41 0)
(8.11789e-43 1.0049e-42 0)
(1.27445e-43 -8.66903e-43 0)
(8.70252e-45 -9.52333e-43 0)
(2.91955e-44 -9.93553e-43 0)
(-6.37054e-44 -1.71757e-42 0)
(-1.47316e-43 8.96091e-43 0)
(6.44558e-44 2.5703e-42 0)
(1.54335e-43 -8.09875e-43 0)
(-5.42851e-44 -1.70622e-42 0)
(-9.07216e-44 8.15681e-43 0)
(2.91063e-44 8.96613e-43 0)
(3.35012e-44 4.8436e-44 0)
(1.86985e-45 5.53792e-45 0)
(2.14882e-46 2.52237e-46 0)
(1.00156e-47 1.72418e-47 0)
(6.83835e-49 6.97095e-49 0)
(2.80774e-50 3.56824e-50 0)
(1.43205e-51 1.30282e-51 0)
(5.50016e-53 5.27778e-53 0)
(5.507e-53 -5.28431e-53 0)
(1.43418e-51 -1.30457e-51 0)
(2.81279e-50 -3.57352e-50 0)
(6.85214e-49 -6.98343e-49 0)
(1.00422e-47 -1.72762e-47 0)
(2.15537e-46 -2.52898e-46 0)
(1.87918e-45 -5.55446e-45 0)
(3.3706e-44 -4.86709e-44 0)
(3.07599e-44 -9.01898e-43 0)
(-5.91105e-44 -8.58545e-43 0)
(-5.91166e-44 8.58541e-43 0)
(3.05714e-44 9.01783e-43 0)
(2.93207e-44 4.51455e-44 0)
(-1.20098e-43 -7.65512e-44 0)
(-2.33089e-42 -2.34518e-42 0)
(-5.97242e-41 -4.50133e-41 0)
(-8.6033e-40 -1.19849e-39 0)
(-2.02062e-38 -1.74952e-38 0)
(-1.75107e-37 -4.35564e-37 0)
(-3.66593e-36 -3.94862e-36 0)
(4.9226e-39 -8.94508e-35 0)
(3.73559e-36 -3.27581e-36 0)
(-4.08557e-38 -5.47902e-37 0)
(2.9283e-38 -5.39663e-38 0)
(3.41875e-39 -3.74096e-38 0)
(2.35792e-39 -1.86389e-39 0)
(1.1836e-40 -1.95266e-40 0)
(1.30894e-41 -8.36779e-42 0)
(5.76194e-43 -6.03099e-43 0)
(3.91427e-44 -6.93275e-44 0)
(3.09629e-45 -5.05481e-44 0)
(-3.70377e-45 -8.50918e-44 0)
(-8.59351e-45 4.44319e-44 0)
(3.49904e-45 1.27266e-43 0)
(8.67354e-45 -4.00215e-44 0)
(-3.23223e-45 -8.44682e-44 0)
(-5.23728e-45 4.03199e-44 0)
(1.57007e-45 4.4461e-44 0)
(1.82751e-45 2.47937e-45 0)
(1.02539e-46 2.84344e-46 0)
(1.18615e-47 1.32477e-47 0)
(5.54678e-49 9.03898e-49 0)
(3.7826e-50 3.7104e-50 0)
(1.55373e-51 1.89175e-51 0)
(7.88198e-53 6.97354e-53 0)
(3.01974e-54 2.81037e-54 0)
(3.02346e-54 -2.81384e-54 0)
(7.89357e-53 -6.98292e-53 0)
(1.55651e-51 -1.89456e-51 0)
(3.7902e-50 -3.71708e-50 0)
(5.56152e-49 -9.05719e-49 0)
(1.18978e-47 -1.32829e-47 0)
(1.03056e-46 -2.85211e-46 0)
(1.83881e-45 -2.49171e-45 0)
(1.66057e-45 -4.47321e-44 0)
(-3.51665e-45 -4.2514e-44 0)
(-3.60074e-45 4.24836e-44 0)
(-1.01901e-45 4.39372e-44 0)
(-6.05643e-44 -2.17601e-44 0)
(-1.78211e-42 -5.65474e-43 0)
(-3.41948e-41 -1.61274e-41 0)
(-9.09923e-40 -3.14016e-40 0)
(-1.32589e-38 -8.40394e-39 0)
(-3.29289e-37 -1.287e-37 0)
(-2.94855e-36 -3.27778e-36 0)
(-6.69051e-35 -3.47541e-35 0)
(1.48101e-38 -7.86074e-34 0)
(6.77501e-35 -2.99459e-35 0)
(-4.533e-37 -5.40496e-36 0)
(7.51206e-37 -8.60078e-37 0)
(5.7259e-38 -7.01726e-37 0)
(2.82885e-38 -3.25296e-38 0)
(1.39413e-39 -3.34784e-39 0)
(1.46613e-40 -1.37413e-40 0)
(6.35032e-42 -9.0836e-42 0)
(4.24105e-43 -3.46418e-43 0)
(1.67525e-44 -2.02153e-44 0)
(6.76721e-46 -5.24348e-45 0)
(-3.69248e-46 2.39258e-45 0)
(1.61398e-46 6.92516e-45 0)
(4.00209e-46 -2.17739e-45 0)
(-1.50879e-46 -4.59667e-45 0)
(-2.43211e-46 2.19379e-45 0)
(7.1535e-47 2.4201e-45 0)
(8.38078e-47 1.3565e-46 0)
(4.80738e-48 1.56502e-47 0)
(5.5458e-49 7.31515e-49 0)
(2.63304e-50 4.98347e-50 0)
(1.78628e-51 2.04638e-51 0)
(7.40745e-53 1.03751e-52 0)
(3.73413e-54 3.81598e-54 0)
(1.43754e-55 1.52592e-55 0)
(1.4393e-55 -1.52778e-55 0)
(3.7396e-54 -3.82106e-54 0)
(7.42066e-53 -1.03904e-52 0)
(1.78986e-51 -2.05005e-51 0)
(2.64003e-50 -4.99348e-50 0)
(5.56272e-49 -7.33464e-49 0)
(4.83127e-48 -1.56983e-47 0)
(8.43131e-47 -1.36341e-46 0)
(7.50938e-47 -2.43534e-45 0)
(-1.86844e-46 -2.32374e-45 0)
(-7.7258e-46 1.97722e-45 0)
(-1.84863e-44 -6.65138e-45 0)
(-4.33137e-43 -2.85863e-43 0)
(-1.23476e-41 -6.69724e-42 0)
(-2.40458e-40 -1.99167e-40 0)
(-6.42463e-39 -3.90738e-39 0)
(-9.7742e-38 -1.1127e-37 0)
(-2.46062e-36 -1.74834e-36 0)
(-2.47235e-35 -4.94525e-35 0)
(-5.63221e-34 -5.83149e-34 0)
(-9.53495e-37 -1.52596e-32 0)
(5.52051e-34 -5.22094e-34 0)
(-1.89069e-37 -4.13342e-38 0)
(-5.56136e-36 -4.75586e-37 0)
(-3.74844e-35 -1.3755e-35 0)
(-1.37852e-33 -1.28843e-35 0)
(-1.34644e-33 2.71587e-35 0)
(1.34644e-33 2.71587e-35 0)
(1.37852e-33 -1.28843e-35 0)
(3.74844e-35 -1.3755e-35 0)
(5.56162e-36 -4.7564e-37 0)
(1.80799e-37 -4.22785e-38 0)
(1.5324e-38 -1.41857e-39 0)
(5.10055e-40 -8.7309e-41 0)
(-6.20472e-47 -5.68877e-42 0)
(-5.10056e-40 -8.73091e-41 0)
(-1.5324e-38 -1.41857e-39 0)
(-1.808e-37 -4.22787e-38 0)
(-5.56165e-36 -4.75643e-37 0)
(-3.74849e-35 -1.37551e-35 0)
(-1.37854e-33 -1.28857e-35 0)
(-1.34662e-33 2.71163e-35 0)
(1.34086e-33 2.66816e-35 0)
(1.34086e-33 -2.66816e-35 0)
(-1.34662e-33 -2.71163e-35 0)
(-1.37854e-33 1.28857e-35 0)
(-3.74849e-35 1.37551e-35 0)
(-5.56165e-36 4.75643e-37 0)
(-1.80801e-37 4.22785e-38 0)
(-1.53553e-38 1.41572e-39 0)
(-1.02311e-39 -1.33949e-43 0)
(-1.53854e-38 -1.41843e-39 0)
(-1.81281e-37 -4.23629e-38 0)
(-5.57646e-36 -4.76974e-37 0)
(-3.76503e-35 -1.37959e-35 0)
(-1.38392e-33 -1.3319e-35 0)
(-1.37852e-33 1.38384e-35 0)
(-7.18745e-43 2.75947e-35 0)
(1.37852e-33 1.38384e-35 0)
(1.38392e-33 -1.3319e-35 0)
(3.76357e-35 -1.37961e-35 0)
(5.49582e-36 -4.53104e-37 0)
(-1.29437e-38 1.98533e-38 0)
(-3.34883e-37 2.39574e-37 0)
(-2.53565e-36 6.93846e-36 0)
(-6.66215e-35 6.49932e-36 0)
(-6.44092e-35 -1.36992e-35 0)
(6.44092e-35 -1.36992e-35 0)
(6.66215e-35 6.49932e-36 0)
(2.53565e-36 6.93846e-36 0)
(3.34906e-37 2.39609e-37 0)
(1.25908e-38 2.10296e-38 0)
(1.01577e-39 7.02459e-40 0)
(3.68598e-41 4.29207e-41 0)
(-4.7539e-48 2.78545e-42 0)
(-3.68599e-41 4.29208e-41 0)
(-1.01577e-39 7.02461e-40 0)
(-1.25908e-38 2.10297e-38 0)
(-3.34909e-37 2.3961e-37 0)
(-2.53569e-36 6.93851e-36 0)
(-6.66225e-35 6.50002e-36 0)
(-6.44218e-35 -1.36781e-35 0)
(6.40732e-35 -1.34589e-35 0)
(6.40732e-35 1.34589e-35 0)
(-6.44218e-35 1.36781e-35 0)
(-6.66225e-35 -6.50002e-36 0)
(-2.53569e-36 -6.93851e-36 0)
(-3.34909e-37 -2.3961e-37 0)
(-1.25909e-38 -2.10296e-38 0)
(-1.01797e-39 -7.01064e-40 0)
(-7.39437e-41 6.53147e-44 0)
(-1.02009e-39 7.02391e-40 0)
(-1.26256e-38 2.10711e-38 0)
(-3.35887e-37 2.40269e-37 0)
(-2.54726e-36 6.95883e-36 0)
(-6.69448e-35 6.71856e-36 0)
(-6.66215e-35 -6.97995e-36 0)
(-6.26182e-44 -1.39191e-35 0)
(6.66215e-35 -6.97994e-36 0)
(6.69448e-35 6.71859e-36 0)
(2.54614e-36 6.95852e-36 0)
(3.28121e-37 2.01035e-37 0)
(-1.68379e-39 1.30741e-39 0)
(-3.80669e-38 1.65133e-38 0)
(-1.2307e-37 4.01581e-37 0)
(-2.18637e-36 3.71195e-37 0)
(-2.09996e-36 -7.9074e-37 0)
(2.09996e-36 -7.9074e-37 0)
(2.18637e-36 3.71195e-37 0)
(1.23069e-37 4.01581e-37 0)
(3.8066e-38 1.65155e-38 0)
(1.54664e-39 1.39432e-39 0)
(1.50935e-40 5.09467e-41 0)
(5.6147e-42 3.03711e-42 0)
(-8.07933e-49 2.09377e-43 0)
(-5.61472e-42 3.03711e-42 0)
(-1.50936e-40 5.09469e-41 0)
(-1.54665e-39 1.39432e-39 0)
(-3.80664e-38 1.65156e-38 0)
(-1.23075e-37 4.01584e-37 0)
(-2.18652e-36 3.71246e-37 0)
(-2.10152e-36 -7.89343e-37 0)
(2.06175e-36 -7.74174e-37 0)
(2.06175e-36 7.74174e-37 0)
(-2.10152e-36 7.89343e-37 0)
(-2.18652e-36 -3.71246e-37 0)
(-1.23075e-37 -4.01584e-37 0)
(-3.80664e-38 -1.65156e-38 0)
(-1.54667e-39 -1.39432e-39 0)
(-1.51296e-40 -5.08419e-41 0)
(-1.12662e-41 4.83595e-45 0)
(-1.51642e-40 5.09417e-41 0)
(-1.55193e-39 1.39725e-39 0)
(-3.82117e-38 1.65635e-38 0)
(-1.2447e-37 4.02928e-37 0)
(-2.22303e-36 3.86364e-37 0)
(-2.18637e-36 -4.04328e-37 0)
(-1.89702e-45 -8.05958e-37 0)
(2.18637e-36 -4.04328e-37 0)
(2.22303e-36 3.86367e-37 0)
(1.24481e-37 4.02907e-37 0)
(3.84629e-38 1.38732e-38 0)
(-1.01398e-40 1.9657e-40 0)
(-2.06298e-39 2.10958e-39 0)
(-4.42899e-39 5.02704e-38 0)
(-5.49805e-38 4.64471e-38 0)
(-5.25309e-38 -9.90454e-38 0)
(5.25309e-38 -9.90454e-38 0)
(5.49805e-38 4.64471e-38 0)
(4.42897e-39 5.02705e-38 0)
(2.06286e-39 2.11009e-39 0)
(9.23425e-41 2.09437e-40 0)
(9.27182e-42 7.8194e-42 0)
(3.6542e-43 4.99691e-43 0)
(-5.62698e-50 3.46546e-44 0)
(-3.65421e-43 4.99692e-43 0)
(-9.27186e-42 7.81942e-42 0)
(-9.23433e-41 2.09438e-40 0)
(-2.06288e-39 2.11011e-39 0)
(-4.42934e-39 5.0271e-38 0)
(-5.49898e-38 4.6455e-38 0)
(-5.26236e-38 -9.88355e-38 0)
(5.04588e-38 -9.69275e-38 0)
(5.04588e-38 9.69275e-38 0)
(-5.26236e-38 9.88355e-38 0)
(-5.49898e-38 -4.6455e-38 0)
(-4.42934e-39 -5.0271e-38 0)
(-2.06288e-39 -2.11011e-39 0)
(-9.23442e-41 -2.09437e-40 0)
(-9.29539e-42 -7.80204e-42 0)
(-7.33342e-43 8.23249e-46 0)
(-9.31795e-42 7.81854e-42 0)
(-9.2687e-41 2.09919e-40 0)
(-2.07179e-39 2.11743e-39 0)
(-4.51239e-39 5.04726e-38 0)
(-5.69599e-38 4.83551e-38 0)
(-5.49805e-38 -5.0683e-38 0)
(-1.60553e-47 -1.00961e-37 0)
(5.49805e-38 -5.0683e-38 0)
(5.696e-38 4.83551e-38 0)
(4.51523e-39 5.04667e-38 0)
(2.10277e-39 1.73243e-39 0)
(-8.41199e-42 1.20541e-41 0)
(-1.63031e-40 1.27257e-40 0)
(-2.04704e-40 2.79051e-39 0)
(-8.60287e-40 2.56027e-39 0)
(-8.11908e-40 -5.49151e-39 0)
(8.11908e-40 -5.49151e-39 0)
(8.60287e-40 2.56027e-39 0)
(2.04702e-40 2.79051e-39 0)
(1.63011e-40 1.27291e-40 0)
(7.4612e-42 1.28906e-41 0)
(8.02866e-43 5.09572e-43 0)
(3.19381e-44 3.26745e-44 0)
(-5.07552e-51 2.35666e-45 0)
(-3.19382e-44 3.26746e-44 0)
(-8.0287e-43 5.09574e-43 0)
(-7.46128e-42 1.28906e-41 0)
(-1.63013e-40 1.27292e-40 0)
(-2.04734e-40 2.79054e-39 0)
(-8.61092e-40 2.56078e-39 0)
(-8.19401e-40 -5.47858e-39 0)
(6.48092e-40 -5.3637e-39 0)
(6.48092e-40 5.3637e-39 0)
(-8.19401e-40 5.47858e-39 0)
(-8.61092e-40 -2.56078e-39 0)
(-2.04734e-40 -2.79054e-39 0)
(-1.63013e-40 -1.27292e-40 0)
(-7.46136e-42 -1.28906e-41 0)
(-8.04979e-43 -5.08392e-43 0)
(-6.4101e-44 5.58641e-47 0)
(-8.07001e-43 5.09514e-43 0)
(-7.49127e-42 1.2922e-41 0)
(-1.63784e-40 1.27769e-40 0)
(-2.1139e-40 2.80292e-39 0)
(-1.01661e-39 2.67515e-39 0)
(-8.60287e-40 -2.81588e-39 0)
(2.18376e-47 -5.60686e-39 0)
(8.60288e-40 -2.81588e-39 0)
(1.01663e-39 2.67515e-39 0)
(2.11956e-40 2.8025e-39 0)
(1.6846e-40 1.04002e-40 0)
(-4.69673e-43 1.04654e-42 0)
(-8.57912e-42 1.03784e-41 0)
(-8.69722e-42 2.25645e-40 0)
(8.72433e-44 2.06994e-40 0)
(5.77054e-43 -4.44188e-40 0)
(-5.77054e-43 -4.44188e-40 0)
(-8.72466e-44 2.06994e-40 0)
(8.69709e-42 2.25646e-40 0)
(8.57775e-42 1.0382e-41 0)
(4.13871e-43 1.11889e-42 0)
(4.51507e-44 4.46136e-44 0)
(1.86141e-45 2.9327e-45 0)
(-3.07137e-52 2.12019e-46 0)
(-1.86142e-45 2.93271e-45 0)
(-4.51509e-44 4.46138e-44 0)
(-4.13876e-43 1.11889e-42 0)
(-8.57787e-42 1.03821e-41 0)
(-8.69896e-42 2.25648e-40 0)
(4.19727e-44 2.07039e-40 0)
(1.61313e-43 -4.43066e-40 0)
(-9.20007e-42 -4.33761e-40 0)
(-9.20007e-42 4.33761e-40 0)
(1.61313e-43 4.43066e-40 0)
(4.19727e-44 -2.07039e-40 0)
(-8.69896e-42 -2.25648e-40 0)
(-8.57787e-42 -1.03821e-41 0)
(-4.1388e-43 -1.11889e-42 0)
(-4.5274e-44 -4.45075e-44 0)
(-3.73628e-45 5.06424e-48 0)
(-4.5392e-44 4.46084e-44 0)
(-4.15623e-43 1.12171e-42 0)
(-8.62115e-42 1.04238e-41 0)
(-9.06755e-42 2.26723e-40 0)
(-8.12003e-42 2.16299e-40 0)
(8.72466e-44 -2.27847e-40 0)
(1.86405e-48 -4.53535e-40 0)
(-8.71889e-44 -2.27847e-40 0)
(8.12149e-42 2.16298e-40 0)
(9.10566e-42 2.26679e-40 0)
(8.92025e-42 8.38086e-42 0)
(-2.99657e-44 6.27403e-44 0)
(-5.49611e-43 5.76881e-43 0)
(-4.98933e-43 1.19513e-41 0)
(1.21327e-42 1.09149e-41 0)
(1.18678e-42 -2.35095e-41 0)
(-1.18678e-42 -2.35095e-41 0)
(-1.21327e-42 1.09149e-41 0)
(4.98938e-43 1.19513e-41 0)
(5.49261e-43 5.7753e-43 0)
(2.67075e-44 6.2969e-44 0)
(2.9858e-45 2.60175e-45 0)
(1.23683e-46 1.71278e-46 0)
(-2.04017e-53 1.26928e-47 0)
(-1.23683e-46 1.71279e-46 0)
(-2.98582e-45 2.60176e-45 0)
(-2.67078e-44 6.29693e-44 0)
(-5.49269e-43 5.77536e-43 0)
(-4.99062e-43 1.19515e-41 0)
(1.21027e-42 1.09175e-41 0)
(1.15995e-42 -2.34463e-41 0)
(-1.73904e-42 -2.29293e-41 0)
(-1.73904e-42 2.29293e-41 0)
(1.15995e-42 2.34463e-41 0)
(1.21027e-42 -1.09175e-41 0)
(-4.99062e-43 -1.19515e-41 0)
(-5.49269e-43 -5.77536e-43 0)
(-2.67081e-44 -6.2969e-44 0)
(-2.99406e-45 -2.5954e-45 0)
(-2.48267e-46 3.02311e-49 0)
(-3.00195e-45 2.60144e-45 0)
(-2.68239e-44 6.31336e-44 0)
(-5.52131e-43 5.79966e-43 0)
(-5.22776e-43 1.20118e-41 0)
(6.87843e-43 1.14319e-41 0)
(1.21327e-42 -1.20751e-41 0)
(1.77451e-49 -2.40289e-41 0)
(-1.21326e-42 -1.20751e-41 0)
(-6.87727e-43 1.14318e-41 0)
(5.25812e-43 1.20091e-41 0)
(5.7494e-43 4.65156e-43 0)
(2.17729e-44 1.83228e-43 0)
(-2.89899e-44 2.54784e-44 0)
(-2.35323e-44 7.67292e-43 0)
(7.48239e-44 7.01088e-43 0)
(7.2684e-44 -1.51074e-42 0)
(-7.2683e-44 -1.51074e-42 0)
(-7.48061e-44 7.01121e-43 0)
(2.3869e-44 7.67938e-43 0)
(2.72116e-44 3.73322e-44 0)
(1.36658e-45 4.1672e-45 0)
(1.53208e-46 1.7299e-46 0)
(6.49396e-48 1.14707e-47 0)
(-1.08471e-54 8.51023e-49 0)
(-6.49399e-48 1.14707e-47 0)
(-1.53209e-46 1.72991e-46 0)
(-1.36659e-45 4.16722e-45 0)
(-2.7212e-44 3.73326e-44 0)
(-2.38755e-44 7.67949e-43 0)
(7.46525e-44 7.01295e-43 0)
(7.13099e-44 -1.50656e-42 0)
(-1.00048e-43 -1.47324e-42 0)
(-1.00048e-43 1.47324e-42 0)
(7.13099e-44 1.50656e-42 0)
(7.46525e-44 -7.01295e-43 0)
(-2.38755e-44 -7.67949e-43 0)
(-2.7212e-44 -3.73326e-44 0)
(-1.36661e-45 -4.1672e-45 0)
(-1.5364e-46 -1.72564e-46 0)
(-1.30359e-47 2.02481e-50 0)
(-1.54053e-46 1.72969e-46 0)
(-1.37269e-45 4.17822e-45 0)
(-2.73587e-44 3.74941e-44 0)
(-2.50885e-44 7.71943e-43 0)
(4.8814e-44 7.34448e-43 0)
(7.48061e-44 -7.76133e-43 0)
(1.09763e-50 -1.54423e-42 0)
(-7.48058e-44 -7.76133e-43 0)
(-4.88073e-44 7.34441e-43 0)
(2.52568e-44 7.71746e-43 0)
(2.86098e-44 2.99231e-44 0)
(1.53213e-42 6.93771e-43 0)
(-5.43861e-44 -1.86886e-43 0)
(8.64622e-45 2.70452e-44 0)
(4.82272e-45 3.42336e-44 0)
(4.2362e-45 -7.49087e-44 0)
(-4.2111e-45 -7.4893e-44 0)
(-4.34199e-45 3.46683e-44 0)
(1.28774e-45 3.8089e-44 0)
(1.48454e-45 1.91148e-45 0)
(7.49462e-47 2.13903e-46 0)
(8.45803e-48 9.08613e-48 0)
(3.5967e-49 6.009e-49 0)
(-5.90505e-56 4.52855e-50 0)
(-3.59672e-49 6.00901e-49 0)
(-8.45807e-48 9.08617e-48 0)
(-7.49471e-47 2.13904e-46 0)
(-1.48457e-45 1.9115e-45 0)
(-1.2881e-45 3.80896e-44 0)
(4.33354e-45 3.46774e-44 0)
(4.13673e-45 -7.46779e-44 0)
(-5.70506e-45 -7.29719e-44 0)
(-5.70506e-45 7.29719e-44 0)
(4.13673e-45 7.46779e-44 0)
(4.33354e-45 -3.46774e-44 0)
(-1.2881e-45 -3.80896e-44 0)
(-1.48457e-45 -1.9115e-45 0)
(-7.4948e-47 -2.13903e-46 0)
(-8.48194e-48 -9.06345e-48 0)
(-7.21995e-49 1.0719e-51 0)
(-8.50478e-48 9.08502e-48 0)
(-7.52848e-47 2.1448e-46 0)
(-1.49266e-45 1.91998e-45 0)
(-1.35456e-45 3.82944e-44 0)
(2.9243e-45 3.63744e-44 0)
(4.34202e-45 -3.85095e-44 0)
(7.06362e-52 -7.66071e-44 0)
(-4.342e-45 -3.85095e-44 0)
(-2.9239e-45 3.63739e-44 0)
(1.36464e-45 3.82836e-44 0)
(1.56714e-45 1.53225e-45 0)
(8.31148e-41 8.38857e-41 0)
(4.07568e-42 -5.1007e-42 0)
(2.04372e-43 -3.02307e-43 0)
(8.8676e-45 -7.77037e-45 0)
(5.15267e-46 -4.42315e-45 0)
(-1.83998e-46 -4.0864e-45 0)
(-2.01639e-46 1.88603e-45 0)
(5.87111e-47 2.07336e-45 0)
(6.80929e-47 1.04585e-46 0)
(3.51444e-48 1.17742e-47 0)
(3.95319e-49 5.01748e-49 0)
(1.70729e-50 3.31237e-50 0)
(-2.62135e-57 2.49736e-51 0)
(-1.7073e-50 3.31238e-50 0)
(-3.95321e-49 5.0175e-49 0)
(-3.51447e-48 1.17743e-47 0)
(-6.80936e-47 1.04587e-46 0)
(-5.87162e-47 2.0734e-45 0)
(2.01615e-46 1.88684e-45 0)
(1.92222e-46 -4.0648e-45 0)
(-2.64242e-46 -3.97152e-45 0)
(-2.64242e-46 3.97152e-45 0)
(1.92222e-46 4.0648e-45 0)
(2.01615e-46 -1.88684e-45 0)
(-5.87162e-47 -2.0734e-45 0)
(-6.80936e-47 -1.04587e-46 0)
(-3.51452e-48 -1.17742e-47 0)
(-3.96447e-49 -5.00497e-49 0)
(-3.42724e-50 5.87648e-53 0)
(-3.97525e-49 5.01687e-49 0)
(-3.53051e-48 1.1806e-47 0)
(-6.84718e-47 1.05055e-46 0)
(-6.18342e-47 2.08468e-45 0)
(1.37054e-46 1.97962e-45 0)
(2.02012e-46 -2.09652e-45 0)
(3.67731e-53 -4.17036e-45 0)
(-2.0201e-46 -2.09652e-45 0)
(-1.37034e-46 1.97959e-45 0)
(6.23259e-47 2.08405e-45 0)
(7.2121e-47 8.37605e-47 0)
(8.53006e-36 -1.13417e-34 0)
(2.14882e-35 -9.52572e-36 0)
(1.5189e-36 -6.40155e-36 0)
(6.41638e-37 -2.90956e-37 0)
(2.91026e-38 -2.61113e-38 0)
(3.01233e-39 -1.05119e-39 0)
(1.23585e-40 -6.56599e-41 0)
(8.22108e-42 -2.47283e-42 0)
(3.114e-43 -1.23395e-43 0)
(1.59186e-44 -4.49363e-45 0)
(5.44413e-46 -1.01088e-46 0)
(2.93948e-47 2.26886e-46 0)
(1.50888e-47 -7.33344e-47 0)
(-5.39142e-48 -1.54539e-46 0)
(-8.71787e-48 7.36834e-47 0)
(2.5517e-48 8.1445e-47 0)
(2.99241e-48 4.65836e-48 0)
(1.71702e-49 5.41322e-49 0)
(1.97413e-50 2.56917e-50 0)
(9.35992e-52 1.75338e-51 0)
(6.302e-53 7.27534e-53 0)
(2.60384e-54 3.6836e-54 0)
(1.29963e-55 1.36336e-55 0)
(4.97214e-57 5.43308e-57 0)
(4.97561e-57 -5.43968e-57 0)
(1.30039e-55 -1.36516e-55 0)
(2.60393e-54 -3.68902e-54 0)
(6.29625e-53 -7.28837e-53 0)
(9.31706e-52 -1.75692e-51 0)
(1.95442e-50 -2.57602e-50 0)
(1.63879e-49 -5.42983e-49 0)
(2.70064e-48 -4.68163e-48 0)
(-6.75573e-48 -8.1939e-47 0)
(-3.22785e-46 -7.7134e-47 0)
(-8.57373e-45 9.76439e-47 0)
(-2.69797e-43 6.27988e-46 0)
(-6.32793e-42 1.46331e-44 0)
(-1.8821e-40 3.41287e-43 0)
(-3.69613e-39 6.74922e-42 0)
(-1.04907e-37 1.21931e-42 0)
(-1.62427e-36 -1.15969e-38 0)
(-4.48463e-35 -1.05483e-36 0)
(-4.70442e-34 -6.54109e-35 0)
(-1.26163e-32 -2.89845e-33 0)
(1.61885e-35 -7.50783e-32 0)
(1.26308e-32 -2.90761e-33 0)
(8.62406e-34 -9.1393e-34 0)
(1.25365e-33 -2.18788e-34 0)
(5.37744e-35 -1.96861e-34 0)
(8.00809e-36 -7.75067e-36 0)
(3.3591e-37 -7.00018e-37 0)
(2.88392e-38 -2.6106e-38 0)
(1.15482e-39 -1.64137e-39 0)
(7.19375e-41 -5.88233e-41 0)
(2.70917e-42 -2.94726e-42 0)
(1.35037e-43 -1.00121e-43 0)
(4.75187e-45 -4.22193e-45 0)
(2.00037e-46 -1.27412e-46 0)
(6.9343e-48 -7.34304e-48 0)
(9.81789e-50 -5.18815e-48 0)
(-2.21765e-49 2.39759e-48 0)
(6.70879e-50 2.65624e-48 0)
(7.86236e-50 1.52114e-49 0)
(4.57972e-51 1.75069e-50 0)
(5.25941e-52 8.29712e-52 0)
(2.51973e-53 5.59419e-53 0)
(1.68971e-54 2.31158e-54 0)
(7.02415e-56 1.15493e-55 0)
(3.48585e-57 4.24699e-57 0)
(1.33663e-58 1.66964e-58 0)
(1.34338e-58 -1.66949e-58 0)
(3.51335e-57 -4.24344e-57 0)
(7.12693e-56 -1.15272e-55 0)
(1.72919e-54 -2.3e-54 0)
(2.66039e-53 -5.54273e-53 0)
(5.77549e-52 -8.08626e-52 0)
(6.29979e-51 -1.66908e-50 0)
(1.38188e-49 -1.2326e-49 0)
(1.88645e-48 -1.64019e-48 0)
(5.87818e-47 2.93608e-47 0)
(1.61611e-45 1.0392e-45 0)
(4.89356e-44 2.85998e-44 0)
(1.17157e-42 8.64985e-43 0)
(3.31606e-41 2.06454e-41 0)
(6.70004e-40 5.58069e-40 0)
(1.78491e-38 8.43169e-39 0)
(2.871e-37 -1.92437e-38 0)
(7.2983e-36 -2.19308e-35 0)
(8.06967e-35 -1.6599e-33 0)
(1.92765e-33 -9.1029e-32 0)
(1.15319e-33 -3.32804e-30 0)
(-7.24749e-34 -9.13707e-32 0)
(4.86142e-32 -2.89783e-32 0)
(5.10892e-32 -8.11442e-34 0)
(1.60674e-33 -1.53359e-35 0)
(2.45023e-34 -2.215e-37 0)
(9.01126e-36 -1.49237e-39 0)
(7.83955e-37 2.11333e-41 0)
(2.91171e-38 2.56957e-42 0)
(1.82908e-39 9.27445e-44 0)
(6.55593e-41 4.13938e-45 0)
(3.28577e-42 1.30518e-46 0)
(1.11641e-43 4.97494e-48 0)
(4.71183e-45 3.48082e-49 0)
(1.50612e-46 -5.86776e-50 0)
(5.52829e-48 -1.34231e-49 0)
(1.59175e-49 6.4003e-50 0)
(7.35167e-51 7.08877e-50 0)
(2.4265e-51 4.12341e-51 0)
(1.36988e-52 4.72935e-52 0)
(1.51735e-53 2.2649e-53 0)
(7.2301e-55 1.51865e-54 0)
(4.77599e-56 6.31228e-56 0)
(1.97544e-57 3.13257e-57 0)
(9.67192e-59 1.15441e-58 0)
(3.85457e-60 4.50368e-60 0)
(1.11931e-59 -4.52196e-60 0)
(4.16297e-58 -1.16142e-58 0)
(1.4866e-56 -3.161e-57 0)
(5.60226e-55 -6.41966e-56 0)
(1.98152e-53 -1.56078e-54 0)
(7.23286e-52 -2.41573e-53 0)
(2.43329e-50 -5.29522e-52 0)
(8.38321e-49 -6.00655e-51 0)
(2.59507e-47 -1.37765e-49 0)
(8.33871e-46 -2.09119e-48 0)
(2.31886e-44 -6.76173e-47 0)
(6.92727e-43 -1.82875e-45 0)
(1.69162e-41 -5.72652e-44 0)
(4.70289e-40 -1.31363e-42 0)
(9.77696e-39 -3.58097e-41 0)
(2.54217e-37 -3.42547e-40 0)
(4.26746e-36 1.86459e-38 0)
(1.04936e-34 2.89327e-36 0)
(1.2498e-33 2.02913e-34 0)
(2.84808e-32 1.0788e-32 0)
(5.12408e-32 3.89033e-31 0)
(2.43415e-32 1.07822e-32 0)
(1.28825e-33 -2.87963e-32 0)
(1.03968e-33 -6.20937e-34 0)
(4.67671e-35 1.80622e-34 0)
(7.24742e-36 7.50842e-36 0)
(3.09963e-37 6.9764e-37 0)
(2.70565e-38 2.61e-38 0)
(1.09399e-39 1.64257e-39 0)
(6.87285e-41 5.88714e-41 0)
(2.60319e-42 2.94945e-42 0)
(1.3042e-43 1.00185e-43 0)
(4.60708e-45 4.2272e-45 0)
(1.94443e-46 1.35089e-46 0)
(6.39691e-48 4.95972e-48 0)
(2.3503e-49 1.44774e-49 0)
(7.03862e-51 6.71556e-51 0)
(2.83906e-52 2.19416e-51 0)
(6.35435e-53 1.23754e-52 0)
(3.54958e-54 1.36827e-53 0)
(3.82942e-55 6.51709e-55 0)
(1.83313e-56 4.30259e-56 0)