/*--------------------------------*- C++ -*----------------------------------*\
| =========                 |                                                 |
| \\      /  F ield         | OpenFOAM: The Open Source CFD Toolbox           |
|  \\    /   O peration     | Version:  2.4.0                                 |
|   \\  /    A nd           | Web:      www.OpenFOAM.org                      |
|    \\/     M anipulation  |                                                 |
\*---------------------------------------------------------------------------*/
FoamFile
{
    version     2.0;
    format      ascii;
    class       volVectorField;
    location    "0.25";
    object      U;
}
// * * * * * * * * * * * * * * * * * * * * * * * * * * * * * * * * * * * * * //

dimensions      [0 1 -1 0 0 0 0];

internalField   nonuniform List<vector> 
1935
(
(5.89342e-36 6.92439e-41 0)
(3.75391e-37 -2.81783e-37 0)
(5.00823e-38 -2.09079e-38 0)
(5.53731e-39 -5.19845e-38 0)
(-2.4461e-38 -7.11568e-37 0)
(-6.33183e-36 -1.5444e-35 0)
(-3.588e-34 -1.60562e-34 0)
(-1.49041e-32 -3.31592e-33 0)
(-4.09314e-31 -8.98427e-33 0)
(-1.46637e-32 -1.96616e-31 0)
(4.60085e-33 -1.09602e-30 0)
(-3.50405e-34 -3.05084e-29 0)
(-1.00741e-32 6.14662e-31 0)
(-1.46779e-34 3.11483e-29 0)
(5.06579e-33 1.12549e-30 0)
(2.45989e-34 2.04248e-31 0)
(-1.8237e-36 1.84658e-32 0)
(-2.48325e-34 2.1905e-31 0)
(-5.41295e-33 1.02061e-30 0)
(6.52126e-33 3.36877e-29 0)
(1.74424e-32 -3.79797e-29 0)
(-5.93753e-33 -7.30056e-29 0)
(-1.77505e-32 -1.74168e-30 0)
(6.3163e-33 3.54752e-29 0)
(1.82555e-32 -4.02126e-29 0)
(-1.24694e-32 -7.66301e-29 0)
(-1.26765e-32 3.65953e-29 0)
(5.22191e-33 3.31243e-31 0)
(-2.08053e-32 5.11648e-31 0)
(-5.80447e-31 -2.06096e-30 0)
(-2.14758e-32 -4.14255e-29 0)
(-7.24132e-33 -1.49811e-30 0)
(-3.3706e-34 -2.69803e-31 0)
(-3.22883e-35 -1.22599e-32 0)
(6.34594e-38 -2.50389e-33 0)
(3.44824e-35 -1.22842e-32 0)
(3.28972e-34 -2.87559e-31 0)
(7.13587e-33 -1.3473e-30 0)
(-8.53049e-33 -4.44048e-29 0)
(-2.29595e-32 4.96682e-29 0)
(7.41157e-33 9.61155e-29 0)
(1.57101e-32 3.7187e-30 0)
(7.38568e-34 6.58893e-31 0)
(7.72025e-35 -7.38794e-41 0)
(1.28061e-33 -7.98708e-41 0)
(1.20685e-32 -7.75053e-42 0)
(1.97358e-31 -1.3357e-42 0)
(4.87551e-36 -5.19478e-36 0)
(7.56009e-35 -6.52045e-35 0)
(7.04617e-34 -1.07069e-33 0)
(1.01263e-32 -9.54559e-33 0)
(6.10206e-37 -3.29577e-37 0)
(9.03433e-36 -4.11769e-36 0)
(7.1802e-35 -6.31112e-35 0)
(9.17516e-34 -5.53061e-34 0)
(3.62495e-38 -6.5518e-40 0)
(4.64394e-37 -4.71639e-37 0)
(3.56355e-36 -7.65422e-36 0)
(4.13183e-35 -5.978e-35 0)
(-1.30139e-38 5.97666e-37 0)
(-2.19079e-38 6.29478e-37 0)
(2.0252e-37 -3.37004e-37 0)
(2.89224e-36 -3.00698e-36 0)
(-6.13164e-36 1.29276e-35 0)
(-1.30019e-36 1.40903e-35 0)
(-7.85965e-37 1.16149e-36 0)
(5.77451e-38 -7.03381e-38 0)
(-3.52822e-34 1.22627e-34 0)
(-4.43112e-35 1.34645e-34 0)
(-1.77979e-35 1.11321e-35 0)
(-1.42463e-36 1.23641e-36 0)
(-1.47631e-32 2.49039e-33 0)
(-1.15655e-33 2.70704e-33 0)
(-1.99036e-34 1.92384e-34 0)
(-1.42629e-35 2.11232e-35 0)
(-4.0642e-31 -6.999e-34 0)
(-2.28719e-32 -7.81157e-35 0)
(-3.87292e-33 -5.02062e-36 0)
(-2.44329e-34 -4.01855e-37 0)
(-5.26506e-33 -1.60482e-32 0)
(-3.986e-34 -4.10422e-33 0)
(-1.10476e-34 -2.74383e-34 0)
(-8.4939e-36 -2.75218e-35 0)
(1.93513e-31 -7.39726e-32 0)
(1.3144e-32 -3.0305e-33 0)
(1.49845e-33 -9.17993e-35 0)
(9.05504e-35 -2.53694e-36 0)
(-1.3569e-32 -1.45329e-30 0)
(-1.0403e-33 -4.79579e-32 0)
(-1.21945e-34 -1.17519e-33 0)
(-7.83935e-36 -1.28129e-35 0)
(-3.93926e-31 2.97912e-32 0)
(-2.68287e-32 1.0114e-33 0)
(-3.08769e-33 2.59364e-35 0)
(-1.87482e-34 3.98587e-37 0)
(-5.84615e-33 1.48478e-30 0)
(-5.11262e-34 4.90408e-32 0)
(-6.03837e-35 1.20326e-33 0)
(-4.07136e-36 1.32271e-35 0)
(1.98022e-31 7.58322e-32 0)
(1.3476e-32 3.00937e-33 0)
(1.54944e-33 8.5622e-35 0)
(9.40147e-35 1.58073e-36 0)
(9.72025e-33 1.38548e-32 0)
(7.75717e-34 1.42823e-33 0)
(9.069e-35 8.38449e-35 0)
(5.90912e-36 6.54287e-36 0)
(-7.47393e-35 1.43791e-33 0)
(-5.63029e-36 1.58771e-34 0)
(-7.2729e-37 1.01685e-35 0)
(-4.6513e-38 8.09501e-37 0)
(-9.73866e-33 1.4735e-32 0)
(-7.75905e-34 1.50867e-33 0)
(-8.89845e-35 8.79186e-35 0)
(-5.76488e-36 6.84129e-36 0)
(-2.11377e-31 6.85417e-32 0)
(-1.42316e-32 1.6135e-33 0)
(-1.63253e-33 -8.90889e-36 0)
(-9.84721e-35 -6.48398e-36 0)
(2.55246e-31 1.57429e-30 0)
(1.76482e-32 5.0205e-32 0)
(2.03461e-33 1.15758e-33 0)
(1.24483e-34 5.04208e-36 0)
(6.81975e-31 -1.84053e-30 0)
(4.64322e-32 -6.24669e-32 0)
(5.34206e-33 -1.60136e-33 0)
(3.24282e-34 -2.46919e-35 0)
(-2.32088e-31 -3.50532e-30 0)
(-1.57972e-32 -1.16396e-31 0)
(-1.81606e-33 -2.87261e-33 0)
(-1.10195e-34 -3.26721e-35 0)
(-6.93849e-31 -1.17787e-31 0)
(-4.72016e-32 -6.89059e-33 0)
(-5.42684e-33 -3.0579e-34 0)
(-3.29222e-34 -1.82963e-35 0)
(2.4684e-31 1.64801e-30 0)
(1.67986e-32 5.0297e-32 0)
(1.92994e-33 1.04311e-33 0)
(1.17072e-34 -9.6059e-36 0)
(7.13545e-31 -1.94471e-30 0)
(4.84204e-32 -6.4992e-32 0)
(5.56701e-33 -1.61751e-33 0)
(3.37324e-34 -1.94995e-35 0)
(-4.87467e-31 -3.65641e-30 0)
(-3.30602e-32 -1.21929e-31 0)
(-3.80319e-33 -3.05095e-33 0)
(-2.30435e-34 -4.04188e-35 0)
(-4.95391e-31 1.68891e-30 0)
(-3.38693e-32 5.4521e-32 0)
(-3.89888e-33 1.30794e-33 0)
(-2.37192e-34 1.28094e-35 0)
(2.23561e-31 3.37911e-32 0)
(1.49179e-32 -5.52022e-34 0)
(1.69503e-33 -1.13439e-34 0)
(1.01423e-34 -1.33406e-35 0)
(1.52596e-33 2.64977e-32 0)
(1.51709e-34 4.44598e-33 0)
(-7.70469e-35 2.79662e-34 0)
(-6.93174e-36 2.92332e-35 0)
(-3.16922e-31 -1.27262e-31 0)
(-1.46928e-32 -4.89128e-33 0)
(-3.47142e-33 -1.37019e-34 0)
(-2.23969e-34 -2.53234e-36 0)
(-2.47956e-32 -1.9836e-30 0)
(-1.90386e-33 -7.05203e-32 0)
(-3.13738e-34 -1.97335e-33 0)
(-2.21702e-35 -5.61504e-35 0)
(-2.63535e-31 -1.01252e-31 0)
(-1.79793e-32 -4.26498e-33 0)
(-2.08742e-33 -1.35227e-34 0)
(-1.27256e-34 -4.36526e-36 0)
(-1.29784e-32 -1.83204e-32 0)
(-1.03779e-33 -1.90662e-33 0)
(-1.2247e-34 -1.12443e-34 0)
(-8.01504e-36 -8.85651e-36 0)
(-1.35146e-33 -9.56757e-34 0)
(-1.08943e-34 -1.07933e-34 0)
(-1.4613e-35 -6.97216e-36 0)
(-9.86962e-37 -5.6314e-37 0)
(2.33791e-36 -1.95503e-34 0)
(1.962e-37 -2.58133e-35 0)
(1.96973e-38 -1.73742e-36 0)
(1.22069e-39 -1.49288e-37 0)
(1.4424e-33 -9.5648e-34 0)
(1.15651e-34 -1.04556e-34 0)
(1.54032e-35 -6.67569e-36 0)
(1.0348e-36 -5.28758e-37 0)
(1.29077e-32 -1.93316e-32 0)
(1.02886e-33 -1.97662e-33 0)
(1.18137e-34 -1.15083e-34 0)
(7.65838e-36 -8.94859e-36 0)
(2.7866e-31 -9.04823e-32 0)
(1.87633e-32 -2.14287e-33 0)
(2.15241e-33 1.07652e-35 0)
(1.29836e-34 8.46864e-36 0)
(-3.33896e-31 -2.07541e-30 0)
(-2.30887e-32 -6.61947e-32 0)
(-2.66196e-33 -1.52646e-33 0)
(-1.62878e-34 -6.66328e-36 0)
(-8.97786e-31 2.40735e-30 0)
(-6.11444e-32 8.17801e-32 0)
(-7.03695e-33 2.10066e-33 0)
(-4.27275e-34 3.28384e-35 0)
(2.89651e-31 4.62065e-30 0)
(1.95547e-32 1.54841e-31 0)
(2.24815e-33 3.89155e-33 0)
(1.35888e-34 5.23448e-35 0)
(6.14363e-31 2.5086e-31 0)
(4.19967e-32 1.13363e-32 0)
(4.83367e-33 3.90981e-34 0)
(2.94015e-34 1.51066e-35 0)
(2.90475e-32 4.50926e-32 0)
(2.32799e-33 4.48515e-33 0)
(2.72625e-34 2.60184e-34 0)
(1.78341e-35 2.00137e-35 0)
(1.1394e-30 -3.30351e-42 0)
(2.4828e-29 -2.863e-42 0)
(2.38723e-29 6.33302e-42 0)
(-2.38616e-29 6.30359e-42 0)
(-2.46421e-29 -3.07314e-42 0)
(9.70501e-33 -6.4981e-42 0)
(2.48289e-29 -3.2838e-42 0)
(2.50041e-29 3.05208e-42 0)
(1.14147e-30 3.26259e-42 0)
(1.85757e-31 2.1067e-43 0)
(9.70116e-33 2.49531e-44 0)
(9.35252e-34 1.34837e-45 0)
(-4.50179e-35 -7.73798e-46 0)
(-1.83236e-33 -2.11997e-44 0)
(-1.8464e-32 -5.10569e-43 0)
(-3.61858e-31 -1.0105e-41 0)
(-2.09806e-30 -2.01127e-40 0)
(-4.88753e-29 -1.57446e-39 0)
(-2.48279e-29 7.19438e-38 0)
(2.38713e-29 7.37859e-36 0)
(2.57853e-29 3.6264e-34 0)
(2.51879e-29 1.33368e-32 0)
(1.33603e-30 3.3018e-31 0)
(1.33094e-30 1.33369e-32 0)
(2.50236e-29 3.69946e-34 0)
(2.50146e-29 3.6264e-34 0)
(1.14068e-30 1.29743e-32 0)
(1.87698e-31 3.16843e-31 0)
(1.1684e-32 -3.16843e-31 0)
(1.04548e-33 -1.29741e-32 0)
(1.93361e-32 -3.47697e-34 0)
(3.70858e-31 3.64442e-34 0)
(2.27882e-30 1.36719e-32 0)
(4.98591e-29 3.38482e-31 0)
(4.92352e-29 1.40345e-32 0)
(-2.08177e-29 1.37085e-32 0)
(2.31005e-29 3.3018e-31 0)
(-1.12178e-30 1.29812e-32 0)
(-4.79197e-29 -1.2626e-32 0)
(-2.09985e-30 -3.16878e-31 0)
(5.77232e-32 -1.49084e-31 0)
(9.03603e-31 -1.33549e-31 0)
(8.55206e-31 2.92153e-31 0)
(-8.54582e-31 2.91317e-31 0)
(-8.94075e-31 -1.42204e-31 0)
(5.6678e-34 -2.99107e-31 0)
(9.03654e-31 -1.50788e-31 0)
(9.12559e-31 1.41325e-31 0)
(5.79183e-32 1.49949e-31 0)
(9.52096e-33 8.62651e-33 0)
(5.66535e-34 8.81531e-34 0)
(5.50163e-35 4.60548e-35 0)
(-2.83869e-36 9.81473e-36 0)
(-1.0763e-34 8.83259e-35 0)
(-1.07786e-33 1.71745e-33 0)
(-1.84782e-32 1.63746e-32 0)
(-1.06368e-31 2.91313e-31 0)
(-1.76771e-30 1.33531e-31 0)
(-9.03599e-31 -4.35241e-31 0)
(8.55141e-31 -3.07782e-31 0)
(9.51995e-31 -9.48254e-33 0)
(9.20105e-31 1.48955e-31 0)
(6.79534e-32 1.55784e-31 0)
(6.95213e-32 -1.4056e-31 0)
(9.1379e-31 -1.41286e-31 0)
(9.13093e-31 1.42282e-31 0)
(5.61114e-32 1.50732e-31 0)
(1.14996e-32 2.14925e-32 0)
(2.54778e-33 -1.19878e-32 0)
(-1.70023e-33 -7.79308e-34 0)
(1.02528e-33 -1.78053e-33 0)
(1.88816e-32 -1.68493e-32 0)
(1.13555e-31 -2.8552e-31 0)
(1.81773e-30 6.10261e-32 0)
(1.78801e-30 4.3261e-31 0)
(-7.02145e-31 1.60601e-31 0)
(8.16246e-31 -9.57246e-32 0)
(-5.48146e-32 4.21334e-31 0)
(-1.71747e-30 7.65647e-33 0)
(-1.08637e-31 -2.73048e-31 0)
(2.22059e-33 -7.42674e-33 0)
(2.13411e-32 -6.52695e-33 0)
(1.99798e-32 1.45064e-32 0)
(-1.99153e-32 1.44574e-32 0)
(-2.04652e-32 -7.02889e-33 0)
(5.76277e-35 -1.49088e-32 0)
(2.13466e-32 -7.52658e-33 0)
(2.21573e-32 6.97727e-33 0)
(2.23499e-33 7.47744e-33 0)
(8.74274e-34 5.00367e-34 0)
(5.75951e-35 5.18296e-35 0)
(6.60748e-36 2.9085e-36 0)
(-3.5309e-37 6.23385e-37 0)
(-1.29197e-35 5.57523e-36 0)
(-1.08557e-34 1.0078e-34 0)
(-1.6913e-33 9.49105e-34 0)
(-3.60194e-33 1.44572e-32 0)
(-4.21299e-32 6.52563e-33 0)
(-2.13399e-32 -2.15872e-32 0)
(1.99726e-32 -1.54117e-32 0)
(2.27069e-32 -5.40767e-34 0)
(2.29288e-32 7.49737e-33 0)
(3.16058e-33 9.20506e-33 0)
(3.2249e-33 -6.85382e-33 0)
(2.22784e-32 -6.96447e-33 0)
(2.22161e-32 7.04364e-33 0)
(2.14591e-33 7.59214e-33 0)
(9.77494e-34 2.5564e-33 0)
(1.61096e-34 -2.00442e-33 0)
(-7.67841e-35 -1.14397e-34 0)
(9.73867e-35 -1.13477e-34 0)
(1.63087e-33 -9.66263e-34 0)
(2.4136e-33 -1.4129e-32 0)
(4.36556e-32 3.16593e-34 0)
(4.58395e-32 2.14376e-32 0)
(-1.49883e-32 8.18637e-33 0)
(1.94928e-32 -2.94492e-33 0)
(-2.03075e-33 2.08523e-32 0)
(-4.08011e-32 3.91219e-34 0)
(-5.21276e-33 -1.46985e-32 0)
(6.53922e-35 -7.75688e-34 0)
(3.60643e-34 -6.81389e-34 0)
(3.33968e-34 1.51758e-33 0)
(-3.30747e-34 1.51163e-33 0)
(-3.21002e-34 -7.35166e-34 0)
(2.86365e-36 -1.55924e-33 0)
(3.60916e-34 -7.88383e-34 0)
(3.97299e-34 7.28885e-34 0)
(6.61876e-35 7.82411e-34 0)
(3.95489e-35 5.35519e-35 0)
(2.86185e-36 6.30813e-36 0)
(3.40958e-37 3.65847e-37 0)
(-1.91335e-38 8.30487e-38 0)
(-6.65961e-37 6.99414e-37 0)
(-5.38135e-36 1.22543e-35 0)
(-7.62548e-35 1.00822e-34 0)
(-9.31465e-35 1.5116e-33 0)
(-7.30889e-34 6.8125e-34 0)
(-3.60575e-34 -2.25908e-33 0)
(3.33549e-34 -1.61314e-33 0)
(3.87215e-34 -5.92078e-35 0)
(4.26666e-34 7.76529e-34 0)
(1.08275e-34 8.38574e-34 0)
(1.1658e-34 -7.22173e-34 0)
(4.03606e-34 -7.28087e-34 0)
(3.99992e-34 7.36239e-34 0)
(5.70359e-35 7.88806e-34 0)
(4.97564e-35 1.50666e-34 0)
(1.30837e-35 -9.0832e-35 0)
(-8.52978e-36 -6.32051e-36 0)
(4.404e-36 -1.26353e-35 0)
(7.19861e-35 -9.47358e-35 0)
(2.55054e-35 -1.43339e-33 0)
(7.65669e-34 8.05393e-34 0)
(9.11832e-34 2.28579e-33 0)
(-2.1657e-34 8.61184e-34 0)
(3.47012e-34 -4.28383e-34 0)
(-5.08205e-35 2.17712e-33 0)
(-7.0236e-34 5.12392e-35 0)
(-1.9265e-34 -1.42085e-33 0)
(2.89519e-36 -3.62159e-35 0)
(-3.58005e-37 -3.14906e-35 0)
(-5.33775e-37 7.07686e-35 0)
(7.67835e-37 7.04612e-35 0)
(3.14723e-36 -3.41991e-35 0)
(2.06579e-37 -7.2851e-35 0)
(-3.38063e-37 -3.68775e-35 0)
(2.21329e-36 3.38739e-35 0)
(2.95317e-36 3.65692e-35 0)
(2.78113e-36 2.69664e-36 0)
(2.06435e-37 3.266e-37 0)
(2.61652e-38 1.98787e-38 0)
(-1.48671e-39 4.56708e-39 0)
(-5.10975e-38 3.79742e-38 0)
(-3.86593e-37 6.33544e-37 0)
(-5.35728e-36 5.06814e-36 0)
(-3.14976e-36 7.04597e-35 0)
(-1.65047e-36 3.14826e-35 0)
(3.64359e-37 -1.05295e-34 0)
(-5.63991e-37 -7.55645e-35 0)
(-1.75254e-37 -2.947e-36 0)
(4.50918e-36 3.65555e-35 0)
(5.91591e-36 4.39943e-35 0)
(6.27038e-36 -3.32354e-35 0)
(2.65596e-36 -3.37876e-35 0)
(2.41967e-36 3.42982e-35 0)
(2.53005e-36 3.71497e-35 0)
(3.26836e-36 1.18763e-35 0)
(6.94658e-37 -8.85439e-36 0)
(-3.76961e-37 -5.75667e-37 0)
(2.98668e-37 -6.85929e-37 0)
(4.85973e-36 -4.65733e-36 0)
(-4.63593e-36 -6.60079e-35 0)
(2.40965e-36 4.00964e-35 0)
(1.74129e-35 1.07203e-34 0)
(4.12711e-36 4.09597e-35 0)
(2.11079e-36 -1.41686e-35 0)
(-2.11784e-36 1.01461e-34 0)
(-1.64565e-36 2.44582e-36 0)
(-1.06513e-35 -7.019e-35 0)
(1.02186e-37 -2.60054e-36 0)
(-2.54533e-37 -2.26848e-36 0)
(-2.44373e-37 5.10473e-36 0)
(2.55274e-37 5.08106e-36 0)
(3.77964e-37 -2.46665e-36 0)
(9.63862e-39 -5.25395e-36 0)
(-2.53073e-37 -2.66173e-36 0)
(-1.4025e-37 2.44163e-36 0)
(1.13697e-37 2.63801e-36 0)
(1.23558e-37 1.96496e-37 0)
(9.63152e-39 2.51377e-38 0)
(1.2412e-39 1.55072e-39 0)
(-7.27434e-41 3.65277e-40 0)
(-2.42217e-39 2.95869e-39 0)
(-1.80164e-38 4.87426e-38 0)
(-2.37556e-37 3.67972e-37 0)
(-1.04999e-37 5.08093e-36 0)
(3.85962e-37 2.26861e-36 0)
(2.54314e-37 -7.59655e-36 0)
(-2.45885e-37 -5.45186e-36 0)
(-2.6416e-37 -2.17695e-37 0)
(-5.07899e-38 2.62031e-36 0)
(2.45711e-37 2.93004e-36 0)
(2.73758e-37 -2.40915e-36 0)
(-1.18899e-37 -2.43698e-36 0)
(-1.31168e-37 2.47238e-36 0)
(8.33415e-38 2.66797e-36 0)
(1.57755e-37 6.2919e-37 0)
(4.38736e-38 -4.0766e-37 0)
(-2.82136e-38 -2.94518e-38 0)
(1.27173e-38 -4.94114e-38 0)
(2.11096e-37 -3.1084e-37 0)
(-2.74853e-37 -4.60246e-36 0)
(-3.68579e-37 5.27937e-36 0)
(3.46694e-37 7.88839e-36 0)
(3.43866e-37 2.97367e-36 0)
(-1.0867e-37 -1.25795e-36 0)
(-6.28148e-38 7.30944e-36 0)
(3.78983e-37 1.96043e-37 0)
(-4.6848e-37 -4.839e-36 0)
(-1.59087e-37 -4.15077e-38 0)
(-2.95912e-38 -9.53923e-38 0)
(-1.95573e-38 2.28161e-37 0)
(1.94159e-38 2.26781e-37 0)
(2.69339e-38 -1.09942e-37 0)
(5.62402e-40 -2.34839e-37 0)
(-1.9699e-38 -1.19066e-37 0)
(-1.31696e-38 1.08754e-37 0)
(6.20599e-39 1.17942e-37 0)
(7.15742e-39 9.19255e-39 0)
(5.62082e-40 1.19384e-39 0)
(7.42271e-41 7.59805e-41 0)
(-4.37419e-42 1.8021e-41 0)
(-1.44841e-40 1.44897e-40 0)
(-1.04961e-39 2.31261e-39 0)
(-1.37571e-38 1.7197e-38 0)
(-5.32404e-39 2.26759e-37 0)
(3.20668e-38 1.00674e-37 0)
(1.97735e-38 -3.39025e-37 0)
(-1.89035e-38 -2.44094e-37 0)
(-2.06937e-38 -1.00855e-38 0)
(-7.55169e-39 1.17848e-37 0)
(1.38552e-38 1.42501e-37 0)
(1.50468e-38 -1.06464e-37 0)
(-1.19471e-38 -1.08413e-37 0)
(-1.2618e-38 1.10331e-37 0)
(4.86001e-39 1.2e-37 0)
(8.70281e-39 3.95486e-38 0)
(2.10985e-39 -2.91671e-38 0)
(-1.22193e-39 -2.03065e-39 0)
(6.91374e-40 -2.41721e-39 0)
(1.17885e-38 -1.40597e-38 0)
(-2.28173e-38 -2.01692e-37 0)
(-3.14268e-38 2.63822e-37 0)
(1.65366e-38 3.5549e-37 0)
(2.43255e-38 1.34919e-37 0)
(-1.05084e-38 -4.25065e-38 0)
(-3.72025e-39 3.26328e-37 0)
(3.0849e-38 8.83604e-39 0)
(-2.58588e-38 -2.25578e-37 0)
(-1.38103e-36 1.18182e-36 0)
(-8.00332e-38 7.75075e-38 0)
(-6.44316e-39 1.73887e-38 0)
(5.67634e-40 1.3414e-38 0)
(1.16136e-39 -6.37517e-39 0)
(2.36563e-41 -1.36414e-38 0)
(-8.73116e-40 -6.91943e-39 0)
(-5.9847e-40 6.31526e-39 0)
(2.57139e-40 6.85219e-39 0)
(3.01937e-40 5.3726e-40 0)
(2.44515e-41 7.14541e-41 0)
(3.25032e-42 4.57618e-42 0)
(-1.95574e-43 1.09677e-42 0)
(-6.33921e-42 8.72223e-42 0)
(-4.56378e-41 1.38387e-40 0)
(-5.79615e-40 1.00342e-39 0)
(-2.15379e-40 1.31712e-38 0)
(1.43329e-39 5.84455e-39 0)
(8.76319e-40 -1.96967e-38 0)
(-8.35333e-40 -1.41832e-38 0)
(-9.21312e-40 -5.94432e-40 0)
(-3.84609e-40 6.81767e-39 0)
(5.80452e-40 7.85563e-39 0)
(6.53439e-40 -6.20711e-39 0)
(-5.43938e-40 -6.29868e-39 0)
(-5.75545e-40 6.40594e-39 0)
(1.79098e-40 6.95023e-39 0)
(3.90279e-40 1.90368e-39 0)
(1.12891e-40 -1.29524e-39 0)
(-7.27414e-41 -9.59993e-41 0)
(2.72397e-41 -1.37098e-40 0)
(4.8463e-40 -7.51267e-40 0)
(-1.07577e-39 -1.13036e-38 0)
(-1.40913e-39 2.10912e-38 0)
(7.18183e-40 2.10588e-38 0)
(1.03938e-39 7.89068e-39 0)
(-4.74226e-40 -2.87692e-39 0)
(-1.26858e-40 1.89383e-38 0)
(1.39787e-39 5.44528e-40 0)
(-1.12372e-39 -1.27184e-38 0)
(-2.34028e-35 -2.18841e-38 0)
(-1.25443e-36 -1.50706e-39 0)
(-8.82244e-38 4.98559e-40 0)
(-4.35205e-39 5.5247e-40 0)
(-1.97918e-40 -2.69232e-40 0)
(-1.06473e-41 -5.75986e-40 0)
(-4.44386e-41 -2.92297e-40 0)
(-3.02698e-41 2.65983e-40 0)
(1.26779e-41 2.89354e-40 0)
(1.49539e-41 2.33852e-41 0)
(1.21619e-42 3.13067e-42 0)
(1.63278e-43 2.04745e-43 0)
(-9.85459e-45 4.91982e-44 0)
(-3.18428e-43 3.90154e-43 0)
(-2.26836e-42 6.05911e-42 0)
(-2.87014e-41 4.36555e-41 0)
(-1.05568e-41 5.55507e-40 0)
(7.21355e-41 2.45509e-40 0)
(4.40005e-41 -8.30693e-40 0)
(-4.1911e-41 -5.99531e-40 0)
(-4.62428e-41 -2.56635e-41 0)
(-1.90278e-41 2.89318e-40 0)
(2.86947e-41 3.53266e-40 0)
(3.16867e-41 -2.59768e-40 0)
(-2.75656e-41 -2.65016e-40 0)
(-2.90741e-41 2.70188e-40 0)
(9.40325e-42 2.94904e-40 0)
(1.87049e-41 1.01576e-40 0)
(4.9713e-42 -7.50715e-41 0)
(-3.01838e-42 -5.44944e-42 0)
(1.23997e-42 -6.10981e-42 0)
(2.3088e-41 -3.12804e-41 0)
(-6.55167e-41 -4.65541e-40 0)
(-7.09768e-41 9.90592e-40 0)
(4.6582e-41 8.98909e-40 0)
(5.34018e-41 3.37513e-40 0)
(-2.38319e-41 -9.60465e-41 0)
(-6.88052e-42 7.99077e-40 0)
(6.97283e-41 2.30086e-41 0)
(-5.45341e-41 -5.54548e-40 0)
(-9.50379e-37 -1.51698e-36 0)
(-5.66977e-38 -1.02397e-37 0)
(-4.29195e-39 -5.00038e-39 0)
(-2.26878e-40 -2.59343e-40 0)
(-1.16047e-41 -2.6428e-41 0)
(-6.24984e-43 -2.91929e-41 0)
(-1.776e-42 -1.4514e-41 0)
(-1.20496e-42 1.31743e-41 0)
(4.99951e-43 1.43384e-41 0)
(5.9251e-43 1.16364e-42 0)
(4.92367e-44 1.57326e-43 0)
(6.61955e-45 1.0323e-44 0)
(-4.05402e-46 2.48834e-45 0)
(-1.29047e-44 1.96679e-44 0)
(-9.18231e-44 3.04455e-43 0)
(-1.13619e-42 2.17075e-42 0)
(-4.13712e-43 2.75225e-41 0)
(2.86509e-42 1.21582e-41 0)
(1.74743e-42 -4.11605e-41 0)
(-1.66284e-42 -2.97121e-41 0)
(-1.8411e-42 -1.28364e-42 0)
(-7.9431e-43 1.42964e-41 0)
(1.13551e-42 1.69039e-41 0)
(1.28874e-42 -1.29035e-41 0)
(-1.09283e-42 -1.31327e-41 0)
(-1.15777e-42 1.33813e-41 0)
(3.37837e-43 1.45826e-41 0)
(7.76478e-43 4.47539e-42 0)
(2.33352e-43 -3.15499e-42 0)
(-1.5204e-43 -2.38338e-43 0)
(4.47118e-44 -2.93184e-43 0)
(8.86821e-43 -1.4146e-42 0)
(-2.85519e-42 -2.21902e-41 0)
(-2.81897e-42 6.07149e-41 0)
(2.08906e-42 4.54059e-41 0)
(2.1033e-42 1.68408e-41 0)
(-9.3936e-43 -5.3306e-42 0)
(-2.31302e-43 3.95614e-41 0)
(2.79935e-42 1.18163e-42 0)
(-2.21878e-42 -2.69311e-41 0)
(6.65514e-36 -6.33781e-38 0)
(3.30964e-37 -2.92212e-39 0)
(1.91883e-38 -1.42239e-40 0)
(8.82404e-40 -8.10062e-42 0)
(4.44772e-41 -9.8802e-43 0)
(1.89343e-42 -1.15632e-42 0)
(8.6429e-45 -5.75488e-43 0)
(-4.92387e-44 5.21204e-43 0)
(2.19503e-44 5.68348e-43 0)
(2.5874e-44 4.71221e-44 0)
(2.15688e-45 6.38051e-45 0)
(2.9073e-46 4.24773e-46 0)
(-1.78389e-47 1.02343e-46 0)
(-5.66728e-46 8.09259e-46 0)
(-4.02131e-45 1.23415e-44 0)
(-4.95988e-44 8.78967e-44 0)
(-1.80306e-44 1.08996e-42 0)
(1.25175e-43 4.80062e-43 0)
(7.634e-44 -1.62997e-42 0)
(-7.26253e-44 -1.17861e-42 0)
(-8.04004e-44 -5.16298e-44 0)
(-3.40127e-44 5.69014e-43 0)
(4.9565e-44 7.0304e-43 0)
(5.5532e-44 -5.07853e-43 0)
(-4.77896e-44 -5.19137e-43 0)
(-5.05631e-44 5.29971e-43 0)
(1.5413e-44 5.8027e-43 0)
(3.31801e-44 2.09646e-43 0)
(9.47317e-45 -1.56164e-43 0)
(-5.97135e-45 -1.16604e-44 0)
(1.74594e-45 -1.19766e-44 0)
(3.7093e-44 -5.4082e-44 0)
(-1.45431e-43 -8.53183e-43 0)
(-1.23153e-43 2.653e-42 0)
(1.11898e-43 1.82312e-42 0)
(9.41668e-44 6.753e-43 0)
(-4.07796e-44 -1.72553e-43 0)
(-1.08229e-44 1.56735e-42 0)
(1.21603e-43 4.66755e-44 0)
(-9.56538e-44 -1.09449e-42 0)
(-5.88446e-37 4.61145e-37 0)
(-3.04969e-38 4.99464e-38 0)
(-1.80262e-39 2.54539e-39 0)
(-8.55444e-41 1.32214e-40 0)
(-4.37791e-42 5.66521e-42 0)
(-1.91625e-43 2.07145e-43 0)
(-1.1561e-44 -1.48682e-44 0)
(-2.30844e-45 2.31736e-44 0)
(7.93124e-46 2.48354e-44 0)
(9.60249e-46 2.06509e-45 0)
(8.13538e-47 2.80298e-46 0)
(1.09486e-47 1.86936e-47 0)
(-6.78943e-49 4.4994e-48 0)
(-2.13381e-47 3.56147e-47 0)
(-1.51749e-46 5.42094e-46 0)
(-1.84089e-45 3.85018e-45 0)
(-6.64901e-46 4.75921e-44 0)
(4.6472e-45 2.09525e-44 0)
(2.83487e-45 -7.11724e-44 0)
(-2.69514e-45 -5.14758e-44 0)
(-2.99152e-45 -2.26886e-45 0)
(-1.30957e-45 2.48049e-44 0)
(1.83957e-45 3.00061e-44 0)
(2.10583e-45 -2.2212e-44 0)
(-1.77007e-45 -2.26702e-44 0)
(-1.87991e-45 2.31331e-44 0)
(5.28336e-46 2.53057e-44 0)
(1.27787e-45 8.51215e-45 0)
(3.98616e-46 -6.16824e-45 0)
(-2.6374e-46 -4.73108e-46 0)
(5.69668e-47 -5.04719e-46 0)
(1.32714e-45 -2.12993e-45 0)
(-5.89386e-45 -3.56957e-44 0)
(-4.57145e-45 1.35782e-43 0)
(4.63982e-45 8.11516e-44 0)
(3.4922e-45 2.97029e-44 0)
(-1.50175e-45 -8.1807e-45 0)
(-3.49023e-46 6.8397e-44 0)
(4.55362e-45 2.08398e-45 0)
(-3.62916e-45 -4.7163e-44 0)
(-1.39103e-35 -2.79083e-39 0)
(-6.95493e-37 -6.55945e-40 0)
(-4.0689e-38 -3.57195e-41 0)
(-1.88207e-39 -1.90404e-42 0)
(-9.54883e-41 -8.40585e-44 0)
(-4.09589e-42 -5.64221e-45 0)
(-1.8512e-43 -1.08544e-45 0)
(-7.45804e-45 8.37862e-46 0)
(-2.7033e-46 9.21831e-46 0)
(2.65139e-47 7.79008e-47 0)
(2.78469e-48 1.05579e-47 0)
(4.16098e-49 7.11348e-49 0)
(-2.72572e-50 1.70768e-49 0)
(-8.3953e-49 1.35543e-48 0)
(-5.98071e-48 2.0414e-47 0)
(-7.23379e-47 1.45316e-46 0)
(-2.6096e-47 1.76687e-45 0)
(1.82617e-46 7.76097e-46 0)
(1.11406e-46 -2.6421e-45 0)
(-1.05891e-46 -1.91343e-45 0)
(-1.17541e-46 -8.51354e-47 0)
(-5.08008e-47 9.24708e-46 0)
(7.22856e-47 1.15732e-45 0)
(8.20728e-47 -8.20488e-46 0)
(-6.95815e-47 -8.40449e-46 0)
(-7.38498e-47 8.58871e-46 0)
(2.13788e-47 9.43109e-46 0)
(4.95506e-47 3.57621e-46 0)
(1.5003e-47 -2.69183e-46 0)
(-9.75538e-48 -2.0519e-47 0)
(1.91742e-48 -1.89979e-47 0)
(4.96886e-47 -7.45848e-47 0)
(-2.62195e-46 -1.27821e-45 0)
(-1.79626e-46 5.5152e-45 0)
(2.12916e-46 3.0589e-45 0)
(1.40312e-46 1.11531e-45 0)
(-5.86169e-47 -2.54094e-46 0)
(-1.43665e-47 2.54012e-45 0)
(1.78286e-46 7.69647e-47 0)
(-1.41509e-46 -1.78721e-45 0)
(-3.0556e-37 -4.66163e-37 0)
(-1.62286e-38 -5.09179e-38 0)
(-9.58068e-40 -2.60039e-39 0)
(-4.61176e-41 -1.354e-40 0)
(-2.35828e-42 -5.83886e-42 0)
(-1.04067e-43 -2.64113e-43 0)
(-4.73786e-45 -1.05723e-44 0)
(-1.95596e-46 -3.97937e-46 0)
(-6.84364e-48 2.01937e-47 0)
(1.01455e-48 2.4683e-48 0)
(1.01681e-49 3.94466e-49 0)
(1.47231e-50 2.72883e-50 0)
(-9.60052e-52 6.67801e-51 0)
(-2.94662e-50 5.33932e-50 0)
(-2.10879e-49 8.03237e-49 0)
(-2.51848e-48 5.72785e-48 0)
(-9.03966e-49 6.94384e-47 0)
(6.35819e-48 3.04882e-47 0)
(3.8797e-48 -1.03832e-46 0)
(-3.68575e-48 -7.52156e-47 0)
(-4.09996e-48 -3.36053e-48 0)
(-1.82041e-48 3.63094e-47 0)
(2.51663e-48 4.48393e-47 0)
(2.90697e-48 -3.22761e-47 0)
(-2.41789e-48 -3.30312e-47 0)
(-2.57435e-48 3.37445e-47 0)
(6.9599e-49 3.70391e-47 0)
(1.77651e-48 1.34588e-47 0)
(5.74367e-49 -9.97388e-48 0)
(-3.86557e-49 -7.74852e-49 0)
(5.52584e-50 -7.19037e-49 0)
(1.65463e-48 -2.59492e-48 0)
(-9.90061e-48 -4.78699e-47 0)
(-6.2533e-48 2.46116e-46 0)
(8.17547e-48 1.22563e-46 0)
(4.90195e-48 4.41635e-47 0)
(-2.02483e-48 -1.0564e-47 0)
(-4.41488e-49 9.97816e-47 0)
(6.25116e-48 3.06557e-48 0)
(-5.01523e-48 -6.96547e-47 0)
(6.97125e-36 1.73816e-39 0)
(3.48391e-37 -1.64321e-39 0)
(2.03755e-38 -9.81664e-41 0)
(9.42185e-40 -5.29236e-42 0)
(4.77939e-41 -2.3513e-43 0)
(2.04968e-42 -1.07142e-44 0)
(9.25736e-44 -4.36524e-46 0)
(3.69283e-45 -1.67546e-47 0)
(1.51156e-46 5.86628e-49 0)
(5.67273e-48 8.27466e-50 0)
(2.15209e-49 1.36883e-50 0)
(7.89965e-51 9.59336e-52 0)
(2.21668e-52 2.34926e-52 0)
(-1.04709e-51 1.88834e-51 0)
(-7.58838e-51 2.81955e-50 0)
(-9.03739e-50 2.01985e-49 0)
(-3.23997e-50 2.41794e-48 0)
(2.28146e-49 1.05975e-48 0)
(1.39223e-49 -3.61525e-48 0)
(-1.32236e-49 -2.62164e-48 0)
(-1.47128e-49 -1.17899e-49 0)
(-6.48465e-50 1.26875e-48 0)
(9.03075e-50 1.60943e-48 0)
(1.03822e-49 -1.11924e-48 0)
(-8.67687e-50 -1.14892e-48 0)
(-9.23638e-50 1.17507e-48 0)
(2.5416e-50 1.29385e-48 0)
(6.32738e-50 5.1462e-49 0)
(2.01386e-50 -3.9182e-49 0)
(-1.34468e-50 -3.03545e-50 0)
(1.55942e-51 -2.50515e-50 0)
(5.61466e-50 -8.2815e-50 0)
(-3.94387e-49 -1.5953e-48 0)
(-2.24368e-49 9.30955e-48 0)
(3.32469e-49 4.33838e-48 0)
(1.79544e-49 1.55415e-48 0)
(-7.21557e-50 -3.12855e-49 0)
(-1.62741e-50 3.47551e-48 0)
(2.2383e-49 1.06003e-49 0)
(-1.79206e-49 -2.46597e-48 0)
(4.41497e-37 3.35863e-37 0)
(2.30163e-38 1.94661e-38 0)
(1.35451e-39 8.98183e-40 0)
(6.4437e-41 4.55251e-41 0)
(3.28689e-42 1.95187e-42 0)
(1.43874e-43 8.81388e-44 0)
(6.53126e-45 3.51556e-45 0)
(2.64597e-46 1.43884e-46 0)
(1.08805e-47 5.39955e-48 0)
(4.11464e-49 2.04835e-49 0)
(1.55888e-50 7.52434e-51 0)
(5.61615e-52 2.78696e-52 0)
(1.78515e-53 1.63666e-53 0)
(-3.40182e-53 6.79427e-53 0)
(-2.50641e-52 1.01001e-51 0)
(-2.95565e-51 7.26899e-51 0)
(-1.05532e-51 8.67723e-50 0)
(7.46133e-51 3.80156e-50 0)
(4.55404e-51 -1.29732e-49 0)
(-4.32371e-51 -9.41028e-50 0)
(-4.81915e-51 -4.24365e-51 0)
(-2.17076e-51 4.55176e-50 0)
(2.95346e-51 5.72925e-50 0)
(3.44347e-51 -4.01816e-50 0)
(-2.83305e-51 -4.12302e-50 0)
(-3.02387e-51 4.21596e-50 0)
(7.84471e-52 4.64203e-50 0)
(2.11914e-51 1.80393e-50 0)
(7.08991e-52 -1.36234e-50 0)
(-4.8554e-52 -1.07032e-51 0)
(3.67532e-53 -8.64029e-52 0)
(1.73913e-51 -2.55107e-51 0)
(-1.39105e-50 -5.41521e-50 0)
(-7.3371e-51 3.71637e-49 0)
(1.18767e-50 1.58767e-49 0)
(5.91239e-51 5.62067e-50 0)
(-2.34148e-51 -1.16103e-50 0)
(-4.7496e-52 1.24681e-49 0)
(7.36302e-51 3.83142e-51 0)
(-5.94764e-51 -8.80742e-50 0)
(-3.63855e-39 4.34309e-38 0)
(-1.8581e-40 2.52999e-39 0)
(-1.11255e-41 1.20047e-40 0)
(-5.18895e-43 6.11225e-42 0)
(-2.65926e-44 2.6744e-43 0)
(-1.14296e-45 1.21344e-44 0)
(-5.18006e-47 4.91647e-46 0)
(-2.06397e-48 2.02163e-47 0)
(-8.43803e-50 7.63447e-49 0)
(-3.08154e-51 2.8866e-50 0)
(-1.12809e-52 1.02895e-51 0)
(-3.48179e-54 3.64869e-53 0)
(-1.77676e-55 1.44143e-54 0)
(-1.14716e-54 2.27142e-54 0)
(-8.32192e-54 3.31554e-53 0)
(-9.78598e-53 2.40117e-52 0)
(-3.48993e-53 2.83817e-51 0)
(2.47017e-52 1.24165e-51 0)
(1.50779e-52 -4.24288e-51 0)
(-1.43127e-52 -3.08028e-51 0)
(-1.59581e-52 -1.39541e-52 0)
(-7.16407e-53 1.49324e-51 0)
(9.77873e-53 1.92055e-51 0)
(1.13765e-52 -1.30969e-51 0)
(-9.37841e-53 -1.34738e-51 0)
(-1.00115e-52 1.37897e-51 0)
(2.6181e-53 1.52237e-51 0)
(6.99381e-53 6.34448e-52 0)
(2.32514e-53 -4.88731e-52 0)
(-1.58891e-53 -3.83725e-53 0)
(7.36398e-55 -2.79709e-53 0)
(5.38878e-53 -7.3281e-53 0)
(-5.04355e-52 -1.67867e-51 0)
(-2.42891e-52 1.31259e-50 0)
(4.36988e-52 5.28448e-51 0)
(1.99598e-52 1.85687e-51 0)
(-7.69699e-53 -3.26405e-52 0)
(-1.58803e-53 4.07905e-51 0)
(2.43524e-52 1.2428e-52 0)
(-1.96599e-52 -2.92029e-51 0)
(-4.25939e-37 3.49715e-37 0)
(-2.21375e-38 2.02469e-38 0)
(-1.29596e-39 9.31713e-40 0)
(-6.15677e-41 4.71924e-41 0)
(-3.13337e-42 2.01947e-42 0)
(-1.37115e-43 9.11431e-44 0)
(-6.22044e-45 3.6302e-45 0)
(-2.52121e-46 1.48466e-46 0)
(-1.03695e-47 5.52029e-48 0)
(-3.91081e-49 2.07098e-49 0)
(-1.4758e-50 7.21056e-51 0)
(-5.19976e-52 2.50384e-52 0)
(-1.81648e-53 8.19319e-54 0)
(-6.35129e-55 3.38465e-55 0)
(-2.77685e-55 1.10162e-54 0)
(-3.01244e-54 7.97204e-54 0)
(-1.07053e-54 9.39722e-53 0)
(7.60196e-54 4.10949e-53 0)
(4.64104e-54 -1.40471e-52 0)
(-4.40398e-54 -1.0201e-52 0)
(-4.91764e-54 -4.62941e-54 0)
(-2.24766e-54 4.94482e-53 0)
(3.00959e-54 6.33635e-53 0)
(3.54254e-54 -4.33617e-53 0)
(-2.88218e-54 -4.46092e-53 0)
(-3.08396e-54 4.56489e-53 0)
(7.65676e-55 5.04099e-53 0)
(2.19524e-54 2.07994e-53 0)
(7.58811e-55 -1.59671e-53 0)
(-5.28614e-55 -1.26725e-54 0)
(7.46756e-57 -8.87876e-55 0)
(1.5504e-54 -1.96706e-54 0)
(-1.66615e-53 -5.20395e-53 0)
(-7.47446e-54 4.76641e-52 0)
(1.45809e-53 1.78488e-52 0)
(6.20238e-54 6.19698e-53 0)
(-2.35038e-54 -1.09449e-53 0)
(-4.39174e-55 1.35023e-52 0)
(7.5317e-54 4.12516e-54 0)
(-6.12609e-54 -9.64855e-53 0)
(-7.29226e-36 -4.23928e-37 0)
(-3.63056e-37 -2.65566e-38 0)
(-2.12146e-38 -1.25267e-39 0)
(-9.78404e-40 -6.38715e-41 0)
(-4.95985e-41 -2.75101e-42 0)
(-2.12299e-42 -1.24368e-43 0)
(-9.58348e-44 -4.97423e-45 0)
(-3.81751e-45 -2.03693e-46 0)
(-1.56147e-46 -7.59819e-48 0)
(-5.80633e-48 -2.8538e-49 0)
(-2.17847e-49 -9.96131e-51 0)
(-7.58492e-51 -3.4625e-52 0)
(-2.63384e-52 -1.13432e-53 0)
(-8.61197e-54 -3.65101e-55 0)
(-2.86579e-55 2.23391e-56 0)
(-1.01288e-55 2.46961e-55 0)
(-3.31742e-56 2.89234e-54 0)
(2.33974e-55 1.26339e-54 0)
(1.42859e-55 -4.32306e-54 0)
(-1.35539e-55 -3.14166e-54 0)
(-1.51413e-55 -1.43021e-55 0)
(-6.91758e-56 1.52592e-54 0)
(9.26439e-56 1.99032e-54 0)
(1.09023e-55 -1.33064e-54 0)
(-8.86908e-56 -1.37205e-54 0)
(-9.49397e-56 1.40499e-54 0)
(2.35722e-56 1.55509e-54 0)
(6.75709e-56 6.78217e-55 0)
(2.33554e-56 -5.28497e-55 0)
(-1.62919e-56 -4.19777e-56 0)
(-2.44952e-58 -2.67921e-56 0)
(4.40099e-56 -4.90921e-56 0)
(-5.56137e-55 -1.49856e-54 0)
(-2.30047e-55 1.57629e-53 0)
(4.92052e-55 5.59583e-54 0)
(1.94569e-55 1.92573e-54 0)
(-7.18161e-56 -2.91003e-55 0)
(-1.34397e-56 4.15663e-54 0)
(2.31794e-55 1.25776e-55 0)
(-1.88638e-55 -3.00395e-54 0)
(9.24372e-36 -9.44391e-37 0)
(4.64381e-37 -7.97273e-38 0)
(2.71872e-38 -3.93794e-39 0)
(1.26172e-39 -2.03303e-40 0)
(6.40559e-41 -8.74746e-42 0)
(2.75436e-42 -3.95345e-43 0)
(1.24488e-43 -1.57678e-44 0)
(4.97599e-45 -6.45117e-46 0)
(2.03745e-46 -2.40079e-47 0)
(7.59654e-48 -9.00915e-49 0)
(2.85277e-49 -3.13866e-50 0)
(9.95368e-51 -1.09005e-51 0)
(3.45925e-52 -3.56539e-53 0)
(1.13286e-53 -1.15369e-54 0)
(3.66591e-55 -3.44915e-56 0)
(8.61531e-57 6.55588e-57 0)
(-6.0957e-58 8.90029e-56 0)
(6.79875e-57 3.88742e-56 0)
(4.14587e-57 -1.33062e-55 0)
(-3.932e-57 -9.67278e-56 0)
(-4.39824e-57 -4.40809e-57 0)
(-2.04007e-57 4.69941e-56 0)
(2.68825e-57 6.1253e-56 0)
(3.19521e-57 -4.09441e-56 0)
(-2.57016e-57 -4.22313e-56 0)
(-2.75698e-57 4.32419e-56 0)
(6.53183e-58 4.78861e-56 0)
(1.9936e-57 2.08661e-56 0)
(7.10906e-58 -1.62516e-56 0)
(-5.03449e-58 -1.30203e-57 0)
(-2.1248e-59 -7.8814e-58 0)
(1.17197e-57 -1.0703e-57 0)
(-1.72525e-56 -4.25687e-56 0)
(-6.67424e-57 5.26752e-55 0)
(1.53876e-56 1.75793e-55 0)
(5.71331e-57 5.97592e-56 0)
(-2.06736e-57 -8.88824e-57 0)
(-3.51531e-58 1.27928e-55 0)