/*--------------------------------*- C++ -*----------------------------------*\
| =========                 |                                                 |
| \\      /  F ield         | OpenFOAM: The Open Source CFD Toolbox           |
|  \\    /   O peration     | Version:  2.4.0                                 |
|   \\  /    A nd           | Web:      www.OpenFOAM.org                      |
|    \\/     M anipulation  |                                                 |
\*---------------------------------------------------------------------------*/
FoamFile
{
    version     2.0;
    format      ascii;
    class       volVectorField;
    location    "0.1";
    object      U;
}
// * * * * * * * * * * * * * * * * * * * * * * * * * * * * * * * * * * * * * //

dimensions      [0 1 -1 0 0 0 0];

internalField   nonuniform List<vector> 
1915
(
(9.92092e-48 -7.95057e-45 0)
(2.23555e-46 -2.33471e-46 0)
(2.82845e-47 -2.2733e-43 0)
(6.14169e-45 -6.47226e-45 0)
(7.5654e-46 -5.11307e-42 0)
(1.77627e-43 -1.4598e-43 0)
(1.55687e-44 -1.39177e-40 0)
(3.98475e-42 -3.81353e-42 0)
(3.76803e-43 -2.59691e-39 0)
(1.08168e-40 -7.18951e-41 0)
(5.6478e-42 -6.74384e-38 0)
(2.01047e-39 -1.76801e-39 0)
(1.14226e-40 -9.75226e-37 0)
(5.2043e-38 -2.61681e-38 0)
(6.77507e-40 -2.50553e-35 0)
(7.46253e-37 -6.2263e-37 0)
(5.17977e-39 -2.44359e-34 0)
(1.90357e-35 -6.38292e-36 0)
(-1.83419e-37 -6.82521e-33 0)
(1.75441e-34 -1.57793e-34 0)
(-6.15662e-38 -1.24597e-38 0)
(-2.58524e-36 -1.56876e-37 0)
(-1.82512e-35 -6.62875e-36 0)
(-9.73005e-34 -6.33944e-36 0)
(-9.57285e-34 1.3138e-35 0)
(9.57285e-34 1.3138e-35 0)
(9.73005e-34 -6.33944e-36 0)
(1.82512e-35 -6.62875e-36 0)
(2.58529e-36 -1.56888e-37 0)
(5.85527e-38 -1.26579e-38 0)
(4.56213e-39 -2.99844e-40 0)
(1.07569e-40 -1.63689e-41 0)
(-4.44004e-48 -7.66537e-43 0)
(-1.07569e-40 -1.63689e-41 0)
(-4.56213e-39 -2.99844e-40 0)
(-5.85528e-38 -1.26579e-38 0)
(-2.5853e-36 -1.56888e-37 0)
(-1.82513e-35 -6.62877e-36 0)
(-9.7301e-34 -6.33974e-36 0)
(-9.57344e-34 1.31254e-35 0)
(9.54695e-34 1.29809e-35 0)
(9.54695e-34 -1.29809e-35 0)
(-9.57344e-34 -1.31254e-35 0)
(-9.7301e-34 6.33974e-36 0)
(-1.82513e-35 6.62877e-36 0)
(-2.5853e-36 1.56888e-37 0)
(-5.8553e-38 1.26579e-38 0)
(-4.56799e-39 2.9946e-40 0)
(-2.15543e-40 -1.57235e-44 0)
(-4.57369e-39 -2.99828e-40 0)
(-5.86548e-38 -1.26739e-38 0)
(-2.58975e-36 -1.57172e-37 0)
(-1.83053e-35 -6.64112e-36 0)
(-9.75536e-34 -6.48395e-36 0)
(-9.73005e-34 6.65381e-36 0)
(-9.50826e-44 1.32828e-35 0)
(9.73005e-34 6.65381e-36 0)
(9.75536e-34 -6.48396e-36 0)
(1.83009e-35 -6.64114e-36 0)
(2.56556e-36 -1.50219e-37 0)
(-2.84033e-39 6.04832e-39 0)
(-1.03614e-37 7.87368e-38 0)
(-8.37789e-37 3.33112e-36 0)
(-3.20039e-35 3.1858e-36 0)
(-3.12671e-35 -6.60212e-36 0)
(3.12671e-35 -6.60212e-36 0)
(3.20039e-35 3.1858e-36 0)
(8.37789e-37 3.33112e-36 0)
(1.03617e-37 7.87436e-38 0)
(2.74289e-39 6.29873e-39 0)
(2.00706e-40 1.48779e-40 0)
(5.22611e-42 8.0845e-42 0)
(-2.27622e-49 3.77606e-43 0)
(-5.22612e-42 8.08451e-42 0)
(-2.00707e-40 1.48779e-40 0)
(-2.7429e-39 6.29874e-39 0)
(-1.03618e-37 7.87438e-38 0)
(-8.37794e-37 3.33113e-36 0)
(-3.20041e-35 3.18595e-36 0)
(-3.12699e-35 -6.59581e-36 0)
(3.11633e-35 -6.52323e-36 0)
(3.11633e-35 6.52323e-36 0)
(-3.12699e-35 6.59581e-36 0)
(-3.20041e-35 -3.18595e-36 0)
(-8.37794e-37 -3.33113e-36 0)
(-1.03618e-37 -7.87438e-38 0)
(-2.74291e-39 -6.29873e-39 0)
(-2.00981e-40 -1.4859e-40 0)
(-1.04726e-41 7.72591e-45 0)
(-2.01248e-40 1.48771e-40 0)
(-2.74786e-39 6.30662e-39 0)
(-1.03813e-37 7.88845e-38 0)
(-8.40336e-37 3.33727e-36 0)
(-3.21049e-35 3.25839e-36 0)
(-3.20039e-35 -3.34359e-36 0)
(-5.54642e-45 -6.67485e-36 0)
(3.20039e-35 -3.34359e-36 0)
(3.21049e-35 3.2584e-36 0)
(8.40114e-37 3.33721e-36 0)
(1.02226e-37 6.69263e-38 0)
(-3.21687e-40 2.64776e-40 0)
(-1.05263e-38 3.66128e-39 0)
(-3.00224e-38 1.29604e-37 0)
(-7.18744e-37 1.22814e-37 0)
(-6.9898e-37 -2.56365e-37 0)
(6.9898e-37 -2.56365e-37 0)
(7.18744e-37 1.22814e-37 0)
(3.00223e-38 1.29604e-37 0)
(1.05261e-38 3.66158e-39 0)
(2.93361e-40 2.77274e-40 0)
(2.64676e-41 7.24887e-42 0)
(6.92974e-43 3.79835e-43 0)
(-3.26117e-50 1.90808e-44 0)
(-6.92975e-43 3.79835e-43 0)
(-2.64677e-41 7.24887e-42 0)
(-2.93362e-40 2.77274e-40 0)
(-1.05262e-38 3.66158e-39 0)
(-3.0023e-38 1.29604e-37 0)
(-7.1877e-37 1.22822e-37 0)
(-6.99274e-37 -2.56087e-37 0)
(6.88428e-37 -2.52696e-37 0)
(6.88428e-37 2.52696e-37 0)
(-6.99274e-37 2.56087e-37 0)
(-7.1877e-37 -1.22822e-37 0)
(-3.0023e-38 -1.29604e-37 0)
(-1.05262e-38 -3.66158e-39 0)
(-2.93363e-40 -2.77274e-40 0)
(-2.65069e-41 -7.23932e-42 0)
(-1.38883e-42 3.80875e-46 0)
(-2.65449e-41 7.24847e-42 0)
(-2.94018e-40 2.77644e-40 0)
(-1.05519e-38 3.66845e-39 0)
(-3.02899e-38 1.29874e-37 0)
(-7.29002e-37 1.26206e-37 0)
(-7.18744e-37 -1.30152e-37 0)
(-8.65539e-47 -2.59763e-37 0)
(7.18744e-37 -1.30152e-37 0)
(7.29003e-37 1.26206e-37 0)
(3.02945e-38 1.29871e-37 0)
(1.06347e-38 3.11897e-39 0)
(-1.38982e-41 3.5228e-41 0)
(-4.09534e-40 4.04141e-40 0)
(-7.85242e-40 1.42443e-38 0)
(-1.24549e-38 1.35068e-38 0)
(-1.20677e-38 -2.81932e-38 0)
(1.20677e-38 -2.81932e-38 0)
(1.24549e-38 1.35068e-38 0)
(7.85241e-40 1.42443e-38 0)
(4.09522e-40 4.04201e-40 0)
(1.26201e-41 3.6832e-41 0)
(1.14899e-42 9.66226e-43 0)
(3.21418e-44 5.44862e-44 0)
(-1.59644e-51 2.71108e-45 0)
(-3.21418e-44 5.44863e-44 0)
(-1.14899e-42 9.66227e-43 0)
(-1.26201e-41 3.6832e-41 0)
(-4.09524e-40 4.04202e-40 0)
(-7.85273e-40 1.42443e-38 0)
(-1.2456e-38 1.35078e-38 0)
(-1.20803e-38 -2.81563e-38 0)
(1.1657e-38 -2.7788e-38 0)
(1.1657e-38 2.7788e-38 0)
(-1.20803e-38 2.81563e-38 0)
(-1.2456e-38 -1.35078e-38 0)
(-7.85273e-40 -1.42443e-38 0)
(-4.09524e-40 -4.04202e-40 0)
(-1.26202e-41 -3.6832e-41 0)
(-1.15079e-42 -9.64869e-43 0)
(-6.44226e-44 5.55631e-47 0)
(-1.15254e-42 9.66169e-43 0)
(-1.26506e-41 3.68851e-41 0)
(-4.1064e-40 4.05114e-40 0)
(-7.96742e-40 1.42802e-38 0)
(-1.28529e-38 1.38751e-38 0)
(-1.24549e-38 -1.43172e-38 0)
(8.15521e-49 -2.85624e-38 0)
(1.24549e-38 -1.43172e-38 0)
(1.28529e-38 1.38751e-38 0)
(7.97161e-40 1.42795e-38 0)
(4.1594e-40 3.35798e-40 0)
(-9.80688e-43 1.52601e-42 0)
(-2.80965e-41 1.74924e-41 0)
(-3.24304e-41 5.61999e-40 0)
(-1.23594e-40 5.30082e-40 0)
(-1.18472e-40 -1.11122e-39 0)
(1.18472e-40 -1.11122e-39 0)
(1.23594e-40 5.30082e-40 0)
(3.24303e-41 5.61999e-40 0)
(2.80948e-41 1.74952e-41 0)
(8.69103e-43 1.60035e-42 0)
(8.481e-44 4.48449e-44 0)
(2.36319e-45 2.50549e-45 0)
(-1.17084e-52 1.30809e-46 0)
(-2.3632e-45 2.5055e-45 0)
(-8.48102e-44 4.4845e-44 0)
(-8.69106e-43 1.60035e-42 0)
(-2.8095e-41 1.74953e-41 0)
(-3.24326e-41 5.62002e-40 0)
(-1.23679e-40 5.30127e-40 0)
(-1.19343e-40 -1.10962e-39 0)
(9.02919e-41 -1.09368e-39 0)
(9.02919e-41 1.09368e-39 0)
(-1.19343e-40 1.10962e-39 0)
(-1.23679e-40 -5.30127e-40 0)
(-3.24326e-41 -5.62002e-40 0)
(-2.8095e-41 -1.74953e-41 0)
(-8.6911e-43 -1.60035e-42 0)
(-8.49456e-44 -4.47795e-44 0)
(-4.73676e-45 2.64883e-48 0)
(-8.50771e-44 4.48422e-44 0)
(-8.71341e-43 1.60279e-42 0)
(-2.81774e-41 1.75376e-41 0)
(-3.32168e-41 5.63557e-40 0)
(-1.50902e-40 5.4602e-40 0)
(-1.23594e-40 -5.65163e-40 0)
(1.18771e-48 -1.1272e-39 0)
(1.23594e-40 -5.65163e-40 0)
(1.50904e-40 5.4602e-40 0)
(3.32825e-41 5.63519e-40 0)
(2.87945e-41 1.45075e-41 0)
(-4.03247e-44 1.1288e-43 0)
(-1.08531e-42 1.21146e-42 0)
(-1.08099e-42 3.90854e-41 0)
(5.25947e-43 3.68892e-41 0)
(5.53949e-43 -7.73081e-41 0)
(-5.53949e-43 -7.73081e-41 0)
(-5.25948e-43 3.68892e-41 0)
(1.08098e-42 3.90854e-41 0)
(1.08524e-42 1.2117e-42 0)
(3.56326e-44 1.18286e-43 0)
(3.47581e-45 3.30061e-45 0)
(1.01132e-46 1.8862e-46 0)
(-5.13063e-54 9.76432e-48 0)
(-1.01132e-46 1.8862e-46 0)
(-3.47582e-45 3.30062e-45 0)
(-3.56327e-44 1.18287e-43 0)
(-1.08524e-42 1.2117e-42 0)
(-1.08109e-42 3.90856e-41 0)
(5.22466e-43 3.68926e-41 0)
(5.18215e-43 -7.71897e-41 0)
(-1.64267e-42 -7.60931e-41 0)
(-1.64267e-42 7.60931e-41 0)
(5.18215e-43 7.71897e-41 0)
(5.22466e-43 -3.68926e-41 0)
(-1.08109e-42 -3.90856e-41 0)
(-1.08524e-42 -1.2117e-42 0)
(-3.56329e-44 -1.18286e-43 0)
(-3.48156e-45 -3.29573e-45 0)
(-2.02718e-46 1.98324e-49 0)
(-3.48713e-45 3.30041e-45 0)
(-3.57284e-44 1.1847e-43 0)
(-1.08862e-42 1.21482e-42 0)
(-1.11324e-42 3.92006e-41 0)
(-5.27036e-43 3.79858e-41 0)
(5.25948e-43 -3.93193e-41 0)
(6.79912e-50 -7.84078e-41 0)
(-5.25945e-43 -3.93193e-41 0)
(5.2712e-43 3.79857e-41 0)
(1.11632e-42 3.91972e-41 0)
(1.1166e-42 9.93435e-43 0)
(-2.14769e-45 4.8398e-45 0)
(-5.81775e-44 4.9721e-44 0)
(-5.41102e-44 1.51425e-42 0)
(1.4234e-43 1.42406e-42 0)
(1.40009e-43 -2.99306e-42 0)
(-1.40009e-43 -2.99306e-42 0)
(-1.4234e-43 1.42406e-42 0)
(5.41102e-44 1.51426e-42 0)
(5.81608e-44 4.97461e-44 0)
(1.90352e-45 4.84937e-45 0)
(1.89684e-46 1.41291e-46 0)
(5.49408e-48 8.00115e-48 0)
(-2.69348e-55 4.27537e-49 0)
(-5.49409e-48 8.00116e-48 0)
(-1.89684e-46 1.41291e-46 0)
(-1.90353e-45 4.84938e-45 0)
(-5.81612e-44 4.97463e-44 0)
(-5.41157e-44 1.51426e-42 0)
(1.4215e-43 1.4242e-42 0)
(1.381e-43 -2.9882e-42 0)
(-1.98359e-43 -2.94317e-42 0)
(-1.98359e-43 2.94317e-42 0)
(1.381e-43 2.9882e-42 0)
(1.4215e-43 -1.4242e-42 0)
(-5.41157e-44 -1.51426e-42 0)
(-5.81612e-44 -4.97463e-44 0)
(-1.90353e-45 -4.84937e-45 0)
(-1.89997e-46 -1.41077e-46 0)
(-1.10127e-47 8.58379e-51 0)
(-1.903e-46 1.41282e-46 0)
(-1.90872e-45 4.85715e-45 0)
(-5.83453e-44 4.98796e-44 0)
(-5.58292e-44 1.51897e-42 0)
(8.58984e-44 1.46909e-42 0)
(1.4234e-43 -1.52384e-42 0)
(5.16883e-51 -3.03822e-42 0)
(-1.4234e-43 -1.52384e-42 0)
(-8.58929e-44 1.46909e-42 0)
(5.60316e-44 1.51882e-42 0)
(6.00961e-44 4.08077e-44 0)
(9.614e-46 1.40986e-44 0)
(-2.26668e-45 2.09998e-45 0)
(-1.94791e-45 8.12618e-44 0)
(6.0816e-45 7.64727e-44 0)
(5.96059e-45 -1.60692e-43 0)
(-5.96057e-45 -1.60692e-43 0)
(-6.08113e-45 7.64737e-44 0)
(1.95903e-45 8.12855e-44 0)
(2.14561e-45 2.6598e-45 0)
(7.30388e-47 2.64757e-46 0)
(7.22102e-48 7.67878e-48 0)
(2.15342e-49 4.35835e-49 0)
(-1.05293e-56 2.31305e-50 0)
(-2.15342e-49 4.35836e-49 0)
(-7.22103e-48 7.67879e-48 0)
(-7.30392e-47 2.64757e-46 0)
(-2.14563e-45 2.65981e-45 0)
(-1.95924e-45 8.1286e-44 0)
(6.0739e-45 7.64814e-44 0)
(5.88731e-45 -1.60427e-43 0)
(-8.11341e-45 -1.58024e-43 0)
(-8.11341e-45 1.58024e-43 0)
(5.88731e-45 1.60427e-43 0)
(6.0739e-45 -7.64814e-44 0)
(-1.95924e-45 -8.1286e-44 0)
(-2.14563e-45 -2.65981e-45 0)
(-7.30395e-47 -2.64757e-46 0)
(-7.23315e-48 -7.6672e-48 0)
(-4.31655e-49 4.61018e-52 0)
(-7.24489e-48 7.67831e-48 0)
(-7.32431e-47 2.6518e-46 0)
(-2.15263e-45 2.66705e-45 0)
(-2.02505e-45 8.1543e-44 0)
(4.00154e-45 7.8876e-44 0)
(6.08113e-45 -8.18087e-44 0)
(2.32162e-52 -1.63101e-43 0)
(-6.08112e-45 -8.18087e-44 0)
(-4.00131e-45 7.88757e-44 0)
(2.03326e-45 8.1534e-44 0)
(2.2237e-45 2.17396e-45 0)
(9.61732e-44 6.81291e-44 0)
(-6.15238e-45 -1.04159e-44 0)
(3.65404e-46 2.49526e-45 0)
(2.99446e-46 2.80049e-45 0)
(2.76914e-46 -5.92833e-45 0)
(-2.76209e-46 -5.9279e-45 0)
(-2.81998e-46 2.81526e-45 0)
(8.67716e-47 3.00013e-45 0)
(9.54699e-47 1.02088e-46 0)
(3.2416e-48 1.00807e-47 0)
(3.20995e-49 3.01028e-49 0)
(9.53889e-51 1.68852e-50 0)
(-4.43488e-58 9.14996e-52 0)
(-9.5389e-51 1.68852e-50 0)
(-3.20995e-49 3.01028e-49 0)
(-3.24161e-48 1.00807e-47 0)
(-9.54704e-47 1.02089e-46 0)
(-8.67812e-47 3.00015e-45 0)
(2.81677e-46 2.81557e-45 0)
(2.72979e-46 -5.91779e-45 0)
(-3.72021e-46 -5.8255e-45 0)
(-3.72021e-46 5.8255e-45 0)
(2.72979e-46 5.91779e-45 0)
(2.81677e-46 -2.81557e-45 0)
(-8.67812e-47 -3.00015e-45 0)
(-9.54704e-47 -1.02089e-46 0)
(-3.24163e-48 -1.00807e-47 0)
(-3.21528e-49 -3.0057e-49 0)
(-1.91202e-50 1.79978e-53 0)
(-3.22044e-49 3.01009e-49 0)
(-3.25065e-48 1.00971e-47 0)
(-9.57818e-47 1.02373e-46 0)
(-8.97012e-47 3.00993e-45 0)
(1.89458e-46 2.90756e-45 0)
(2.81998e-46 -3.02004e-45 0)
(1.17855e-53 -6.02046e-45 0)
(-2.81998e-46 -3.02005e-45 0)
(-1.89447e-46 2.90754e-45 0)
(9.00975e-47 3.00956e-45 0)
(9.9202e-47 8.36387e-47 0)
(7.2369e-42 1.01997e-41 0)
(2.95187e-43 -4.20064e-43 0)
(1.11332e-44 -2.07167e-44 0)
(3.98218e-46 -3.56586e-46 0)
(2.0376e-47 -2.77313e-46 0)
(-9.27521e-48 -2.63478e-46 0)
(-9.79712e-48 1.25001e-46 0)
(2.98141e-48 1.33193e-46 0)
(3.29328e-48 4.52054e-48 0)
(1.14967e-49 4.46924e-49 0)
(1.12421e-50 1.32984e-50 0)
(3.40886e-52 7.39889e-52 0)
(-1.47888e-59 3.98749e-53 0)
(-3.40887e-52 7.3989e-52 0)
(-1.12421e-50 1.32984e-50 0)
(-1.14968e-49 4.46925e-49 0)
(-3.29329e-48 4.52056e-48 0)
(-2.98155e-48 1.33194e-46 0)
(9.79353e-48 1.25021e-46 0)
(9.48147e-48 -2.62735e-46 0)
(-1.29013e-47 -2.58649e-46 0)
(-1.29013e-47 2.58649e-46 0)
(9.48147e-48 2.62735e-46 0)
(9.79353e-48 -1.25021e-46 0)
(-2.98155e-48 -1.33194e-46 0)
(-3.29329e-48 -4.52056e-48 0)
(-1.14968e-49 -4.46924e-49 0)
(-1.12609e-50 -1.32784e-50 0)
(-6.83289e-52 7.74115e-55 0)
(-1.12791e-50 1.32976e-50 0)
(-1.15291e-49 4.47643e-49 0)
(-3.30419e-48 4.53312e-48 0)
(-3.08526e-48 1.33627e-46 0)
(6.61557e-48 1.29094e-46 0)
(9.80479e-48 -1.34076e-46 0)
(4.55093e-55 -2.67281e-46 0)
(-9.80477e-48 -1.34076e-46 0)
(-6.61515e-48 1.29094e-46 0)
(3.09966e-48 1.3361e-46 0)
(3.43028e-48 3.70474e-48 0)
(5.17834e-36 -3.53616e-32 0)
(5.84887e-33 -9.36844e-34 0)
(5.36207e-34 -2.30115e-30 0)
(-2.66664e-34 -4.31173e-32 0)
(3.50642e-32 2.66498e-31 0)
(2.26352e-32 5.02256e-33 0)
(5.36145e-34 2.5723e-30 0)
(1.08187e-33 4.82627e-32 0)
(5.18954e-36 3.99483e-32 0)
(6.53042e-33 1.05988e-33 0)
(4.7739e-38 1.62487e-32 0)
(-1.02735e-34 4.20214e-34 0)
(4.73013e-37 7.92139e-32 0)
(-1.02986e-32 2.08461e-33 0)
(9.4413e-37 4.01911e-30 0)
(-2.06292e-32 7.62991e-32 0)
(3.04822e-38 8.15798e-30 0)
(-6.66836e-34 1.5375e-31 0)
(-9.43455e-37 4.28095e-30 0)
(2.06157e-32 8.1199e-32 0)
(1.09755e-32 2.18633e-33 0)
(2.51404e-34 2.74023e-34 0)
(1.88154e-35 6.98595e-36 0)
(4.22013e-37 5.0344e-37 0)
(2.17615e-38 8.00907e-38 0)
(-1.46688e-39 1.27589e-36 0)
(-3.70933e-38 5.85865e-35 0)
(-1.7187e-36 7.61863e-34 0)
(-2.23654e-35 3.64702e-32 0)
(-1.03443e-33 2.57916e-31 0)
(-1.01375e-33 1.4813e-29 0)
(1.01375e-33 1.4813e-29 0)
(1.03444e-33 2.57916e-31 0)
(2.22199e-35 3.64697e-32 0)
(-1.73164e-35 7.55644e-34 0)
(-1.86417e-33 -2.44933e-34 0)
(-1.21925e-31 1.27526e-36 0)
(-1.86421e-33 3.03587e-34 0)
(-1.90351e-35 6.22027e-36 0)
(-1.45545e-37 5.19704e-37 0)
(2.3761e-40 1.09705e-38 0)
(3.32428e-40 6.75391e-40 0)
(2.93167e-39 2.68257e-39 0)
(1.54284e-34 -2.38608e-35 0)
(1.40644e-35 -7.00781e-37 0)
(3.9041e-37 -4.22684e-38 0)
(2.3365e-38 -1.1792e-39 0)
(-4.7843e-36 -6.79823e-34 0)
(4.99014e-37 -8.99644e-36 0)
(2.49233e-38 -2.38977e-37 0)
(3.13337e-39 -5.57037e-39 0)
(4.8325e-34 7.02391e-35 0)
(8.88818e-35 7.74785e-37 0)
(2.52937e-36 3.66823e-39 0)
(2.22085e-37 -5.8617e-41 0)
(3.15119e-35 7.53242e-34 0)
(3.76025e-36 9.82828e-36 0)
(1.16471e-37 2.44819e-37 0)
(8.55826e-39 5.56388e-39 0)
(1.7551e-34 2.09354e-35 0)
(1.58766e-35 3.33107e-37 0)
(4.44735e-37 1.01234e-38 0)
(2.6526e-38 2.57514e-40 0)
(-3.23453e-36 3.53094e-35 0)
(-3.01472e-37 9.83736e-37 0)
(-9.21968e-39 5.79674e-38 0)
(-5.44764e-40 1.60574e-39 0)
(-2.78611e-34 6.94581e-35 0)
(-2.49632e-35 1.53249e-36 0)
(-7.00788e-37 7.33387e-38 0)
(-4.13914e-38 1.9579e-39 0)
(-5.54943e-34 1.09e-33 0)
(-4.97439e-35 1.24404e-35 0)
(-1.39156e-36 9.36542e-38 0)
(-8.22389e-38 1.48959e-40 0)
(-1.79038e-35 2.15043e-33 0)
(-1.60517e-36 2.37344e-35 0)
(-4.48498e-38 1.13699e-37 0)
(-2.65114e-39 -1.74585e-39 0)
(5.54516e-34 1.15706e-33 0)
(4.97064e-35 1.3154e-35 0)
(1.39041e-36 9.48654e-38 0)
(8.21722e-38 2.74147e-41 0)
(2.96827e-34 7.08685e-35 0)
(2.66018e-35 1.54375e-36 0)
(7.46664e-37 7.28777e-38 0)
(4.41069e-38 1.93926e-39 0)
(7.96704e-36 2.29449e-35 0)
(7.22853e-37 6.39556e-37 0)
(2.21827e-38 3.75434e-38 0)
(1.30468e-39 1.03967e-39 0)
(5.83667e-37 6.16645e-37 0)
(6.22559e-38 1.88994e-38 0)
(1.9121e-39 1.10984e-39 0)
(1.19188e-40 3.26193e-41 0)
(1.42641e-38 5.29785e-38 0)
(1.53181e-39 1.63286e-39 0)
(4.98837e-41 1.01656e-40 0)
(3.0925e-42 2.97704e-42 0)
(-9.42168e-40 3.64265e-39 0)
(1.94989e-41 3.01139e-40 0)
(-4.26039e-42 1.11136e-41 0)
(-6.87153e-44 6.09071e-43 0)
(-7.71197e-38 4.49477e-38 0)
(-2.73813e-39 4.65306e-39 0)
(-3.03385e-40 1.54323e-40 0)
(-9.92095e-42 9.41039e-42 0)
(-1.45058e-36 1.8769e-36 0)
(-5.25586e-38 1.94112e-37 0)
(-5.46141e-39 6.03366e-39 0)
(-1.80692e-40 3.7133e-40 0)
(-6.65465e-35 2.49345e-35 0)
(-2.19373e-36 2.13478e-36 0)
(-2.27876e-37 6.60485e-38 0)
(-7.07012e-39 3.81039e-39 0)
(-8.4461e-34 1.02393e-33 0)
(-2.83562e-35 8.41781e-35 0)
(-2.49123e-36 2.3645e-36 0)
(-7.72476e-38 1.37016e-37 0)
(-3.88172e-32 7.38546e-33 0)
(-1.10578e-33 1.92207e-34 0)
(-9.71385e-35 3.69182e-36 0)
(-2.74995e-36 1.45268e-37 0)
(-3.80378e-32 3.03012e-31 0)
(-1.07956e-33 4.36976e-33 0)
(-9.487e-35 4.83318e-35 0)
(-2.6796e-36 2.44554e-37 0)
(3.80378e-32 3.03012e-31 0)
(1.07956e-33 4.36976e-33 0)
(9.487e-35 4.83318e-35 0)
(2.6796e-36 2.44556e-37 0)
(3.88172e-32 7.38547e-33 0)
(1.10578e-33 1.92219e-34 0)
(9.71378e-35 3.69229e-36 0)
(2.74992e-36 1.45313e-37 0)
(8.44465e-34 1.02448e-33 0)
(2.83366e-35 8.47438e-35 0)
(2.47706e-36 2.38435e-36 0)
(7.67064e-38 1.38948e-37 0)
(4.75789e-35 3.15123e-35 0)
(8.74625e-37 8.90995e-36 0)
(-4.49032e-37 3.05149e-37 0)
(-1.63054e-38 2.34949e-38 0)
(-1.85723e-33 3.22928e-34 0)
(-6.2279e-35 3.29371e-34 0)
(-8.90437e-36 9.86679e-36 0)
(-2.9215e-37 8.21625e-37 0)
(-1.21666e-31 4.48795e-38 0)
(-2.91717e-33 4.65308e-39 0)
(-4.24327e-34 1.54427e-40 0)
(-1.19869e-35 1.11084e-41 0)
(-1.85868e-33 -3.21049e-34 0)
(-6.23315e-35 -3.29176e-34 0)
(-8.90982e-36 -9.86074e-36 0)
(-2.9228e-37 -8.21212e-37 0)
(-1.89675e-35 -6.57776e-36 0)
(-1.3191e-36 -6.77515e-36 0)
(-6.76859e-37 -2.38909e-37 0)
(-2.21519e-38 -1.7864e-38 0)
(-1.44941e-37 -5.49602e-37 0)
(-1.94023e-38 -5.65603e-37 0)
(-1.20329e-38 -1.65215e-38 0)
(5.71328e-38 3.15289e-38 0)
(3.62731e-40 -1.13209e-38 0)
(3.13624e-39 -7.48054e-39 0)
(3.85838e-38 1.42616e-37 0)
(1.05912e-36 1.43578e-36 0)
(5.29103e-39 1.94745e-39 0)
(1.68199e-37 4.45421e-38 0)
(1.69586e-36 1.4504e-36 0)
(5.05305e-35 1.70633e-35 0)
(5.31914e-38 9.99677e-38 0)
(1.71415e-36 1.72318e-36 0)
(2.08443e-35 6.05895e-35 0)
(6.5904e-34 7.03097e-34 0)
(5.93631e-40 -4.03898e-41 0)
(2.47601e-41 -4.31314e-43 0)
(5.7397e-43 -1.09859e-44 0)
(1.96116e-44 -2.41449e-46 0)
(4.33246e-46 -1.46492e-47 0)
(1.22852e-47 -6.88921e-48 0)
(-2.14205e-50 3.17749e-48 0)
(9.27472e-50 3.39677e-48 0)
(9.52482e-50 1.18323e-49 0)
(3.30391e-51 1.16703e-50 0)
(3.19715e-52 3.54155e-52 0)
(9.62887e-54 1.95623e-53 0)
(1.81664e-59 1.06881e-54 0)
(-9.62781e-54 1.95623e-53 0)
(-3.19662e-52 3.54157e-52 0)
(-3.30101e-51 1.16704e-50 0)
(-9.51185e-50 1.18326e-49 0)
(-8.61335e-50 3.39689e-48 0)
(2.83508e-49 3.18291e-48 0)
(2.74514e-49 -6.69811e-48 0)
(-3.73263e-49 -6.59112e-48 0)
(-3.73263e-49 6.59112e-48 0)
(2.74514e-49 6.69811e-48 0)
(2.83508e-49 -3.18291e-48 0)
(-8.61335e-50 -3.39689e-48 0)
(-9.51185e-50 -1.18326e-49 0)
(-3.30103e-51 -1.16704e-50 0)
(-3.20183e-52 -3.53621e-52 0)
(-1.92974e-53 2.05439e-56 0)
(-3.20689e-52 3.54135e-52 0)
(-3.31015e-51 1.16894e-50 0)
(-9.54285e-50 1.18661e-49 0)
(-8.91143e-50 3.40821e-48 0)
(1.91701e-49 3.28955e-48 0)
(2.83828e-49 -3.41992e-48 0)
(1.36921e-56 -6.81713e-48 0)
(-2.83828e-49 -3.41992e-48 0)
(-1.91688e-49 3.28953e-48 0)
(8.95521e-50 3.40775e-48 0)
(9.93416e-50 9.70564e-50 0)
(1.00418e-40 -2.85982e-40 0)
(6.01597e-42 -6.92984e-42 0)
(1.64485e-43 -2.91943e-43 0)
(7.13718e-45 -6.85331e-45 0)
(1.79946e-46 -2.35767e-46 0)
(6.24121e-48 -5.41815e-48 0)
(1.40671e-49 -6.8756e-50 0)
(5.97944e-51 8.60448e-50 0)
(1.98505e-51 3.01263e-51 0)
(6.93239e-53 2.98424e-52 0)
(6.46636e-54 9.01047e-54 0)
(1.97138e-55 4.88855e-55 0)
(2.01453e-59 2.65041e-56 0)
(-1.96072e-55 4.89508e-55 0)
(-6.41858e-54 9.04587e-54 0)
(-6.6971e-53 3.00013e-52 0)
(-1.89194e-51 3.09326e-51 0)
(-1.70937e-51 8.92412e-50 0)
(5.64001e-51 8.36376e-50 0)
(5.45726e-51 -1.75972e-49 0)
(-7.42279e-51 -1.7317e-49 0)
(-7.42279e-51 1.7317e-49 0)
(5.45726e-51 1.75972e-49 0)
(5.64001e-51 -8.36376e-50 0)
(-1.70937e-51 -8.92412e-50 0)
(-1.89194e-51 -3.09326e-51 0)
(-6.69713e-53 -3.00012e-52 0)
(-6.42907e-54 -9.03259e-54 0)
(-3.92991e-55 4.9858e-58 0)
(-6.43923e-54 9.04535e-54 0)
(-6.71572e-53 3.00488e-52 0)
(-1.89817e-51 3.10181e-51 0)
(-1.76991e-51 8.95321e-50 0)
(3.81525e-51 8.64303e-50 0)
(5.64644e-51 -8.98331e-50 0)
(2.93249e-58 -1.79082e-49 0)
(-5.64643e-51 -8.98331e-50 0)
(-3.81499e-51 8.64298e-50 0)
(1.77898e-51 8.95198e-50 0)
(1.98014e-51 2.54813e-51 0)
(5.89511e-39 -4.97673e-42 0)
(3.19815e-40 -1.22096e-43 0)
(7.82803e-42 -4.1853e-45 0)
(3.26495e-43 -9.21061e-47 0)
(7.64068e-45 -2.64795e-48 0)
(2.60388e-46 -5.848e-50 0)
(5.77666e-48 3.0962e-52 0)
(1.66982e-49 1.77057e-51 0)
(3.53629e-51 6.299e-53 0)
(8.92653e-53 6.07992e-54 0)
(1.86892e-54 1.86079e-55 0)
(4.26877e-56 9.93409e-57 0)
(7.05681e-58 5.42951e-58 0)
(-4.36462e-57 9.9378e-57 0)
(-1.44239e-55 1.86295e-55 0)
(-1.53404e-54 6.09081e-54 0)
(-4.35543e-53 6.35837e-53 0)
(-3.93641e-53 1.79741e-51 0)
(1.29837e-52 1.68207e-51 0)
(1.25642e-52 -3.54306e-51 0)
(-1.70879e-52 -3.48539e-51 0)
(-1.70879e-52 3.48539e-51 0)
(1.25642e-52 3.54306e-51 0)
(1.29837e-52 -1.68207e-51 0)
(-3.93641e-53 -1.79741e-51 0)
(-4.35543e-53 -6.35837e-53 0)
(-1.53405e-54 -6.0908e-54 0)
(-1.44469e-55 -1.86023e-55 0)
(-8.77569e-57 1.00558e-59 0)
(-1.44691e-55 1.86284e-55 0)
(-1.53821e-54 6.10046e-54 0)
(-4.36941e-53 6.37601e-53 0)
(-4.07537e-53 1.80332e-51 0)
(8.78212e-53 1.73956e-51 0)
(1.29981e-52 -1.80943e-51 0)
(6.73041e-60 -3.60701e-51 0)
(-1.29981e-52 -1.80943e-51 0)
(-8.78152e-53 1.73955e-51 0)
(4.09627e-53 1.80306e-51 0)
(4.56411e-53 5.25454e-53 0)
(2.3794e-40 2.83188e-40 0)
(1.16816e-41 6.86017e-42 0)
(2.95206e-43 2.89595e-43 0)
(1.15511e-44 6.80185e-45 0)
(2.76887e-46 2.34121e-46 0)
(9.02907e-48 5.21129e-48 0)
(2.04109e-49 1.51664e-49 0)
(5.71488e-51 3.22255e-51 0)
(1.2217e-52 8.1749e-53 0)
(3.007e-54 1.7192e-54 0)
(6.19499e-56 3.94354e-56 0)
(1.37641e-57 8.68443e-58 0)
(2.40518e-59 2.47673e-59 0)
(-8.26282e-59 2.17728e-58 0)
(-2.70906e-57 4.16845e-57 0)
(-2.93168e-56 1.37145e-55 0)
(-8.19044e-55 1.46021e-54 0)
(-7.38826e-55 4.14788e-53 0)
(2.44113e-54 3.88248e-53 0)
(2.36084e-54 -8.17635e-53 0)
(-3.21199e-54 -8.04365e-53 0)
(-3.21199e-54 8.04365e-53 0)
(2.36084e-54 8.17635e-53 0)
(2.44113e-54 -3.88248e-53 0)
(-7.38826e-55 -4.14788e-53 0)
(-8.19044e-55 -1.46021e-54 0)
(-2.93169e-56 -1.37145e-55 0)
(-2.71334e-57 -4.16254e-57 0)
(-1.66545e-58 2.13325e-61 0)
(-2.71748e-57 4.16822e-57 0)
(-2.93959e-56 1.37356e-55 0)
(-8.2167e-55 1.46416e-54 0)
(-7.65429e-55 4.16118e-53 0)
(1.65149e-54 4.01476e-53 0)
(2.44385e-54 -4.17493e-53 0)
(1.31031e-61 -8.32319e-53 0)
(-2.44384e-54 -4.17493e-53 0)
(-1.65138e-54 4.01473e-53 0)
(7.69416e-55 4.16058e-53 0)
(8.59642e-55 1.21233e-54 0)
(6.72619e-40 1.18749e-41 0)
(2.79576e-41 2.95363e-43 0)
(6.47698e-43 1.14334e-44 0)
(2.20785e-44 2.73278e-46 0)
(4.87144e-46 8.86409e-48 0)
(1.41085e-47 1.99941e-49 0)
(2.94502e-49 5.57654e-51 0)
(7.42176e-51 1.18967e-52 0)
(1.45919e-52 2.91948e-54 0)
(3.25451e-54 6.0009e-56 0)
(6.00939e-56 1.33013e-57 0)
(1.20121e-57 2.72866e-59 0)
(2.07182e-59 6.76209e-61 0)
(-1.28071e-60 4.0627e-60 0)
(-5.42606e-59 7.9134e-59 0)
(-6.00438e-58 2.57662e-57 0)
(-1.68463e-56 2.79175e-56 0)
(-1.51999e-56 7.80324e-55 0)
(5.02052e-56 7.29492e-55 0)
(4.85572e-56 -1.53773e-54 0)
(-6.60598e-56 -1.51231e-54 0)
(-6.60598e-56 1.51231e-54 0)
(4.85572e-56 1.53773e-54 0)
(5.02052e-56 -7.29492e-55 0)
(-1.51999e-56 -7.80324e-55 0)
(-1.68463e-56 -2.79175e-56 0)
(-6.0044e-58 -2.57661e-57 0)
(-5.43497e-59 -7.90233e-59 0)
(-3.31641e-60 3.92472e-63 0)
(-5.44302e-59 7.91298e-59 0)
(-6.02015e-58 2.58055e-57 0)
(-1.68989e-56 2.79926e-56 0)
(-1.57459e-56 7.82822e-55 0)
(3.39611e-56 7.54829e-55 0)
(5.02595e-56 -7.85406e-55 0)
(2.63321e-63 -1.5658e-54 0)
(-5.02594e-56 -7.85406e-55 0)
(-3.39587e-56 7.54824e-55 0)
(1.58271e-56 7.82707e-55 0)
(1.76968e-56 2.32748e-56 0)
(-1.45801e-41 6.79965e-41 0)
(-5.90825e-43 1.56807e-42 0)
(-1.4148e-44 5.30976e-44 0)
(-4.68035e-46 1.16972e-45 0)
(-1.053e-47 3.36946e-47 0)
(-2.95531e-49 7.01998e-49 0)
(-6.2287e-51 1.7601e-50 0)
(-1.52086e-52 3.45228e-52 0)
(-2.99552e-54 7.66204e-54 0)
(-6.4747e-56 1.41041e-55 0)
(-1.18893e-57 2.80529e-57 0)
(-2.30248e-59 4.8359e-59 0)
(-3.94451e-61 8.72251e-61 0)
(-3.59305e-62 9.28141e-62 0)
(-9.44818e-61 1.57612e-60 0)
(-1.06749e-59 5.16155e-59 0)
(-2.95684e-58 5.71797e-58 0)
(-2.66355e-58 1.60502e-56 0)
(8.81022e-58 1.50068e-56 0)
(8.51666e-58 -3.16287e-56 0)
(-1.159e-57 -3.1107e-56 0)
(-1.159e-57 3.1107e-56 0)
(8.51666e-58 3.16287e-56 0)
(8.81022e-58 -1.50068e-56 0)
(-2.66355e-58 -1.60502e-56 0)
(-2.95684e-58 -5.71797e-58 0)
(-1.0675e-59 -5.16155e-59 0)
(-9.46134e-61 -1.57376e-60 0)
(-5.81522e-62 7.39225e-65 0)
(-9.47517e-61 1.57581e-60 0)
(-1.07026e-59 5.16921e-59 0)
(-2.966e-58 5.73294e-58 0)
(-2.76084e-58 1.61002e-56 0)
(5.96044e-58 1.55269e-56 0)
(8.81969e-58 -1.6152e-56 0)
(4.66572e-65 -3.22036e-56 0)
(-8.81967e-58 -1.6152e-56 0)
(-5.96001e-58 1.55268e-56 0)
(2.77512e-58 1.60979e-56 0)
(3.11028e-58 4.79046e-58 0)
(-1.04945e-39 8.15162e-41 0)
(-4.32101e-41 1.87109e-42 0)
(-9.99728e-43 6.31385e-44 0)
(-3.37685e-44 1.3872e-45 0)
(-7.43355e-46 3.9843e-47 0)
(-2.13408e-47 8.27966e-49 0)
(-4.4408e-49 2.06999e-50 0)
(-1.10975e-50 4.04949e-52 0)
(-2.1733e-52 8.96163e-54 0)
(-4.80785e-54 1.64487e-55 0)
(-8.8319e-56 3.26167e-57 0)
(-1.75081e-57 5.60178e-59 0)
(-3.00883e-59 1.00426e-60 0)
(-5.39784e-61 1.74538e-62 0)
(-2.56706e-62 2.78958e-62 0)
(-1.97243e-61 8.98569e-61 0)
(-5.47819e-60 1.01657e-59 0)
(-4.93546e-60 2.81713e-58 0)
(1.63211e-59 2.63126e-58 0)
(1.57779e-59 -5.55003e-58 0)
(-2.14707e-59 -5.4571e-58 0)
(-2.14707e-59 5.4571e-58 0)
(1.57779e-59 5.55003e-58 0)
(1.63211e-59 -2.63126e-58 0)
(-4.93546e-60 -2.81713e-58 0)
(-5.47819e-60 -1.01657e-59 0)
(-1.97103e-61 -8.98564e-61 0)
(-1.70454e-62 -2.75965e-62 0)
(-1.04189e-63 1.24599e-66 0)
(-1.70696e-62 2.76319e-62 0)
(-1.97598e-61 8.9988e-61 0)
(-5.49469e-60 1.0192e-59 0)
(-5.11551e-60 2.82584e-58 0)
(1.10406e-59 2.72392e-58 0)
(1.63382e-59 -2.83485e-58 0)
(8.33556e-67 -5.65223e-58 0)
(-1.63382e-59 -2.83485e-58 0)
(-1.10398e-59 2.7239e-58 0)
(5.14153e-60 2.82542e-58 0)
(5.76649e-60 8.55655e-60 0)
(-2.07991e-39 -3.19468e-41 0)
(-8.56879e-41 -8.55052e-43 0)
(-1.97871e-42 -2.98841e-44 0)
(-6.68699e-44 -6.60889e-46 0)
(-1.46979e-45 -1.89897e-47 0)
(-4.22134e-47 -3.95241e-49 0)
(-8.77345e-49 -9.87649e-51 0)
(-2.1932e-50 -1.93431e-52 0)
(-4.29084e-52 -4.27886e-54 0)
(-9.49461e-54 -7.86056e-56 0)
(-1.74274e-55 -1.55818e-57 0)
(-3.45531e-57 -2.6779e-59 0)
(-5.93422e-59 -4.79935e-61 0)
(-1.06368e-60 -7.67505e-63 0)
(-1.73276e-62 3.69538e-64 0)
(-3.53562e-63 1.6187e-62 0)
(-8.96261e-62 1.8769e-61 0)
(-8.06333e-62 5.21903e-60 0)
(2.66959e-61 4.87509e-60 0)
(2.57962e-61 -1.02818e-59 0)
(-3.51125e-61 -1.01098e-59 0)
(-3.51125e-61 1.01098e-59 0)
(2.57962e-61 1.02818e-59 0)
(2.66959e-61 -4.87509e-60 0)
(-8.06332e-62 -5.21903e-60 0)
(-8.9622e-62 -1.8769e-61 0)
(-3.2575e-63 -1.61889e-62 0)
(-2.7507e-64 -4.94459e-64 0)
(-1.68899e-65 2.10565e-68 0)
(-2.75453e-64 4.95073e-64 0)
(-3.26555e-63 1.62119e-62 0)
(-8.98882e-62 1.88161e-61 0)
(-8.36157e-62 5.23473e-60 0)
(1.80603e-61 5.04656e-60 0)
(2.67234e-61 -5.25096e-60 0)
(1.35035e-68 -1.04704e-59 0)
(-2.67233e-61 -5.25096e-60 0)
(-1.80591e-61 5.04653e-60 0)
(8.40386e-62 5.23398e-60 0)
(9.44469e-62 1.58784e-61 0)
(-6.69925e-41 -1.5028e-40 0)
(-2.76051e-42 -3.69349e-42 0)
(-6.37034e-44 -1.26751e-43 0)
(-2.15321e-45 -2.79154e-45 0)
(-4.73021e-47 -8.02049e-47 0)
(-1.35874e-48 -1.66697e-48 0)
(-2.82272e-50 -4.16695e-50 0)
(-7.05703e-52 -8.15206e-52 0)
(-1.38017e-53 -1.80378e-53 0)
(-3.05422e-55 -3.31074e-55 0)
(-5.60442e-57 -6.56396e-57 0)
(-1.11123e-58 -1.12728e-58 0)
(-1.90801e-60 -2.02052e-60 0)
(-3.42007e-62 -3.23921e-62 0)
(-5.52686e-64 -5.20274e-64 0)
(-6.35757e-65 2.53363e-64 0)
(-1.5071e-63 3.10173e-63 0)
(-1.35587e-63 8.53803e-62 0)
(4.48833e-63 7.96838e-62 0)
(4.3371e-63 -1.68166e-61 0)
(-5.90332e-63 -1.65317e-61 0)
(-5.90332e-63 1.65317e-61 0)
(4.3371e-63 1.68166e-61 0)
(4.48833e-63 -7.96838e-62 0)
(-1.35587e-63 -8.53803e-62 0)
(-1.50697e-63 -3.10185e-63 0)
(-5.46349e-65 -2.61252e-64 0)
(-4.49171e-66 -8.01571e-66 0)
(-2.74346e-67 1.64023e-70 0)
(-4.49776e-66 8.02558e-66 0)
(-5.47658e-65 2.61617e-64 0)
(-1.51132e-63 3.1095e-63 0)
(-1.40601e-63 8.56336e-62 0)
(3.03614e-63 8.2524e-62 0)
(4.49282e-63 -8.58955e-62 0)
(2.19201e-70 -1.71283e-61 0)
(-4.49281e-63 -8.58956e-62 0)
(-3.03593e-63 8.25235e-62 0)
(1.41297e-63 8.56213e-62 0)
(1.58904e-63 2.63709e-63 0)
(2.07811e-39 -3.95048e-41 0)
(8.56151e-41 -1.03633e-42 0)
(1.97695e-42 -3.60696e-44 0)
(6.68111e-44 -7.96968e-46 0)
(1.46845e-45 -2.28988e-47 0)
(4.21752e-47 -4.76459e-49 0)
(8.7653e-49 -1.19065e-50 0)
(2.19117e-50 -2.33133e-52 0)
(4.28679e-52 -5.15724e-54 0)
(9.48568e-54 -9.47227e-56 0)
(1.74107e-55 -1.87767e-57 0)
(3.452e-57 -3.22641e-59 0)
(5.92845e-59 -5.78232e-61 0)
(1.06264e-60 -9.27408e-63 0)
(1.7036e-62 -1.51114e-64 0)
(2.77015e-64 2.00674e-66 0)
(-1.8802e-65 5.19871e-65 0)
(-2.05646e-65 1.43555e-63 0)
(6.83462e-65 1.3398e-63 0)
(6.60184e-65 -2.82736e-63 0)
(-8.98778e-65 -2.77948e-63 0)
(-8.98776e-65 2.77948e-63 0)
(6.60184e-65 2.82738e-63 0)
(6.83452e-65 -1.33979e-63 0)
(-2.06265e-65 -1.43555e-63 0)
(-2.29515e-65 -5.20213e-65 0)
(-8.38615e-67 -4.26597e-66 0)
(-6.7345e-68 -1.18789e-67 0)
(-4.28765e-69 -1.14213e-68 0)
(-6.70899e-68 1.2998e-67 0)
(-8.40745e-67 4.2719e-66 0)
(-2.30165e-65 5.21456e-65 0)
(-2.13981e-65 1.43969e-63 0)
(4.62348e-65 1.38754e-63 0)
(6.84125e-65 -1.44397e-63 0)
(1.88176e-70 -2.87964e-63 0)
(-6.84124e-65 -1.44396e-63 0)
(-4.62319e-65 1.38754e-63 0)
(2.15026e-65 1.43949e-63 0)
(2.42256e-65 4.44457e-65 0)
(1.11817e-39 8.06587e-41 0)
(4.60426e-41 1.85011e-42 0)
(1.06515e-42 6.24319e-44 0)
(3.59795e-44 1.37105e-45 0)
(7.91953e-46 3.93805e-47 0)
(2.27362e-47 8.18044e-49 0)
(4.73077e-49 2.04521e-50 0)
(1.18221e-50 3.99971e-52 0)
(2.31502e-52 8.85141e-54 0)
(5.12128e-54 1.62418e-55 0)
(9.40697e-56 3.22054e-57 0)
(1.86476e-57 5.5297e-59 0)
(3.20445e-59 9.9124e-61 0)
(5.74306e-61 1.58888e-62 0)
(9.21162e-63 2.59159e-64 0)
(1.50215e-64 3.93258e-66 0)
(1.89205e-66 8.29625e-67 0)
(-2.82067e-67 2.18511e-65 0)
(1.04948e-66 2.04295e-65 0)
(1.01224e-66 -4.30233e-65 0)
(-1.37888e-66 -4.23114e-65 0)