/*--------------------------------*- C++ -*----------------------------------*\
| =========                 |                                                 |
| \\      /  F ield         | OpenFOAM: The Open Source CFD Toolbox           |
|  \\    /   O peration     | Version:  2.4.0                                 |
|   \\  /    A nd           | Web:      www.OpenFOAM.org                      |
|    \\/     M anipulation  |                                                 |
\*---------------------------------------------------------------------------*/
FoamFile
{
    version     2.0;
    format      ascii;
    class       volVectorField;
    location    "0.4";
    object      U;
}
// * * * * * * * * * * * * * * * * * * * * * * * * * * * * * * * * * * * * * //

dimensions      [0 1 -1 0 0 0 0];

internalField   nonuniform List<vector> 
1915
(
(3.95539e-43 -2.14793e-40 0)
(1.35191e-41 -2.12294e-41 0)
(4.26758e-42 -2.49741e-39 0)
(1.80561e-40 -2.45241e-40 0)
(4.46902e-41 -2.69521e-38 0)
(2.07114e-39 -2.632e-39 0)
(4.2344e-40 -2.84574e-37 0)
(2.21424e-38 -2.74821e-38 0)
(3.75195e-39 -2.72138e-36 0)
(2.31467e-37 -2.61872e-37 0)
(2.71556e-38 -2.61017e-35 0)
(2.18315e-36 -2.47282e-36 0)
(1.70913e-37 -2.12492e-34 0)
(2.06036e-35 -2.01723e-35 0)
(4.29893e-37 -1.8628e-33 0)
(1.62502e-34 -1.71947e-34 0)
(-1.96594e-36 -1.17642e-32 0)
(1.36409e-33 -1.10715e-33 0)
(-4.57701e-35 -1.00406e-31 0)
(7.45389e-33 -8.7768e-33 0)
(-2.26648e-36 -6.22928e-37 0)
(-3.06949e-35 -5.39095e-36 0)
(-1.77927e-34 -6.49454e-35 0)
(-2.83567e-33 -5.53398e-35 0)
(-2.68644e-33 1.26386e-34 0)
(2.68644e-33 1.26386e-34 0)
(2.83567e-33 -5.53398e-35 0)
(1.77928e-34 -6.49453e-35 0)
(3.07061e-35 -5.39235e-36 0)
(2.23609e-36 -6.55631e-37 0)
(2.46841e-37 -4.7896e-38 0)
(1.74964e-38 -4.25173e-39 0)
(-2.98151e-44 -5.71125e-40 0)
(-1.74969e-38 -4.25181e-39 0)
(-2.46849e-37 -4.78973e-38 0)
(-2.23619e-36 -6.55652e-37 0)
(-3.07076e-35 -5.39264e-36 0)
(-1.77945e-34 -6.49496e-35 0)
(-2.83592e-33 -5.5388e-35 0)
(-2.6887e-33 1.25726e-34 0)
(2.65549e-33 1.20945e-34 0)
(2.65549e-33 -1.20945e-34 0)
(-2.6887e-33 -1.25726e-34 0)
(-2.83592e-33 5.5388e-35 0)
(-1.77945e-34 6.49496e-35 0)
(-3.07076e-35 5.39263e-36 0)
(-2.2363e-36 6.55631e-37 0)
(-2.48384e-37 4.76092e-38 0)
(-3.52912e-38 -1.98051e-41 0)
(-2.49796e-37 -4.78748e-38 0)
(-2.25236e-36 -6.59575e-37 0)
(-3.09368e-35 -5.43628e-36 0)
(-1.79933e-34 -6.5557e-35 0)
(-2.86437e-33 -6.01205e-35 0)
(-2.83567e-33 6.62209e-35 0)
(-7.85451e-41 1.3121e-34 0)
(2.83567e-33 6.62207e-35 0)
(2.86436e-33 -6.01236e-35 0)
(1.79694e-34 -6.5563e-35 0)
(2.96799e-35 -5.03471e-36 0)
(-4.18538e-37 2.8872e-37 0)
(-5.08231e-36 2.7744e-36 0)
(-3.08273e-35 3.34539e-35 0)
(-3.37587e-34 2.8492e-35 0)
(-3.11465e-34 -6.50745e-35 0)
(3.11465e-34 -6.50745e-35 0)
(3.37587e-34 2.8492e-35 0)
(3.08274e-35 3.34539e-35 0)
(5.08496e-36 2.77573e-36 0)
(4.2264e-37 3.27277e-37 0)
(4.62763e-38 2.35315e-38 0)
(3.49673e-39 2.04312e-39 0)
(-6.4463e-45 2.7056e-40 0)
(-3.49683e-39 2.04316e-39 0)
(-4.62779e-38 2.35321e-38 0)
(-4.22662e-37 3.27287e-37 0)
(-5.08527e-36 2.77587e-36 0)
(-3.08309e-35 3.34559e-35 0)
(-3.37634e-34 2.85156e-35 0)
(-3.11891e-34 -6.47452e-35 0)
(3.06334e-34 -6.22751e-35 0)
(3.06334e-34 6.22751e-35 0)
(-3.11891e-34 6.47452e-35 0)
(-3.37634e-34 -2.85156e-35 0)
(-3.08309e-35 -3.34559e-35 0)
(-5.08527e-36 -2.77587e-36 0)
(-4.22683e-37 -3.27277e-37 0)
(-4.65858e-38 -2.33956e-38 0)
(-7.05554e-39 9.25403e-42 0)
(-4.68679e-38 2.35216e-38 0)
(-4.25894e-37 3.29174e-37 0)
(-5.12801e-36 2.79736e-36 0)
(-3.1207e-35 3.37595e-35 0)
(-3.42293e-34 3.0962e-35 0)
(-3.37587e-34 -3.40908e-35 0)
(-1.87682e-41 -6.75664e-35 0)
(3.37587e-34 -3.40907e-35 0)
(3.4229e-34 3.09632e-35 0)
(3.11564e-35 3.37493e-35 0)
(4.82174e-36 2.22182e-36 0)
(-8.35721e-38 5.3515e-38 0)
(-8.5151e-37 5.13106e-37 0)
(-3.30493e-36 5.14097e-36 0)
(-2.74612e-35 4.22363e-36 0)
(-2.49372e-35 -9.94431e-36 0)
(2.49372e-35 -9.94431e-36 0)
(2.74612e-35 4.22363e-36 0)
(3.30491e-36 5.14096e-36 0)
(8.51646e-37 5.13337e-37 0)
(8.01205e-38 6.1206e-38 0)
(1.00546e-38 4.73311e-39 0)
(8.05876e-40 4.13634e-40 0)
(-1.73537e-45 5.70192e-41 0)
(-8.05902e-40 4.13642e-40 0)
(-1.0055e-38 4.73325e-39 0)
(-8.01258e-38 6.12081e-38 0)
(-8.51721e-37 5.13366e-37 0)
(-3.30573e-36 5.14137e-36 0)
(-2.74714e-35 4.22839e-36 0)
(-2.50181e-35 -9.88269e-36 0)
(2.40754e-35 -9.42621e-36 0)
(2.40754e-35 9.42621e-36 0)
(-2.50181e-35 9.88269e-36 0)
(-2.74714e-35 -4.22839e-36 0)
(-3.30573e-36 -5.14137e-36 0)
(-8.51721e-37 -5.13366e-37 0)
(-8.01312e-38 -6.1206e-38 0)
(-1.01303e-38 -4.70448e-39 0)
(-1.62741e-39 1.96134e-42 0)
(-1.01992e-38 4.73101e-39 0)
(-8.08674e-38 6.15889e-38 0)
(-8.6096e-37 5.17685e-37 0)
(-3.37572e-36 5.19782e-36 0)
(-2.82421e-35 4.68011e-36 0)
(-2.74612e-35 -5.25983e-36 0)
(-1.97596e-42 -1.04052e-35 0)
(2.74612e-35 -5.2598e-36 0)
(2.82419e-35 4.68037e-36 0)
(3.37285e-36 5.1961e-36 0)
(8.4536e-37 4.10816e-37 0)
(-1.07409e-38 1.18837e-38 0)
(-9.61719e-38 1.03017e-37 0)
(-2.6182e-37 9.77545e-37 0)
(-1.69469e-36 7.95567e-37 0)
(-1.52022e-36 -1.89106e-36 0)
(1.52022e-36 -1.89106e-36 0)
(1.69469e-36 7.95567e-37 0)
(2.61815e-37 9.77546e-37 0)
(9.61627e-38 1.03096e-37 0)
(1.00688e-38 1.36326e-38 0)
(1.35328e-39 1.11063e-39 0)
(1.14151e-40 1.02809e-40 0)
(-2.72887e-46 1.46372e-41 0)
(-1.14155e-40 1.02811e-40 0)
(-1.35335e-39 1.11066e-39 0)
(-1.00696e-38 1.36332e-38 0)
(-9.61737e-38 1.03103e-37 0)
(-2.61931e-37 9.77649e-37 0)
(-1.69606e-36 7.96685e-37 0)
(-1.53041e-36 -1.87733e-36 0)
(1.42269e-36 -1.78685e-36 0)
(1.42269e-36 1.78685e-36 0)
(-1.53041e-36 1.87733e-36 0)
(-1.69606e-36 -7.96685e-37 0)
(-2.61931e-37 -9.77649e-37 0)
(-9.61737e-38 -1.03103e-37 0)
(-1.00704e-38 -1.36326e-38 0)
(-1.36434e-39 -1.10328e-39 0)
(-2.30655e-40 5.1847e-43 0)
(-1.37435e-39 1.11007e-39 0)
(-1.01744e-38 1.37275e-38 0)
(-9.74113e-38 1.04111e-37 0)
(-2.70635e-37 9.90164e-37 0)
(-1.78204e-36 8.86046e-37 0)
(-1.69469e-36 -1.00399e-36 0)
(-1.30197e-43 -1.98256e-36 0)
(1.69469e-36 -1.00399e-36 0)
(1.78205e-36 8.86061e-37 0)
(2.70729e-37 9.89509e-37 0)
(9.801e-38 8.12509e-38 0)
(-1.41193e-39 1.60556e-39 0)
(-1.13804e-38 1.3347e-38 0)
(-1.90845e-38 1.18246e-37 0)
(-7.35837e-38 9.48003e-38 0)
(-6.47651e-38 -2.28435e-37 0)
(6.47651e-38 -2.28435e-37 0)
(7.35837e-38 9.48003e-38 0)
(1.90834e-38 1.18246e-37 0)
(1.13743e-38 1.33597e-38 0)
(1.27954e-39 1.85376e-39 0)
(1.8487e-40 1.58357e-40 0)
(1.61346e-41 1.5069e-41 0)
(-4.20906e-47 2.20929e-42 0)
(-1.61352e-41 1.50693e-41 0)
(-1.84879e-40 1.58363e-40 0)
(-1.27966e-39 1.85385e-39 0)
(-1.13759e-38 1.33608e-38 0)
(-1.90998e-38 1.18261e-37 0)
(-7.37702e-38 9.49598e-38 0)
(-6.60611e-38 -2.26566e-37 0)
(5.32044e-38 -2.14916e-37 0)
(5.32044e-38 2.14916e-37 0)
(-6.60611e-38 2.26566e-37 0)
(-7.37702e-38 -9.49598e-38 0)
(-1.90998e-38 -1.18261e-37 0)
(-1.13759e-38 -1.33608e-38 0)
(-1.27978e-39 -1.85376e-39 0)
(-1.86482e-40 -1.57247e-40 0)
(-3.26188e-41 7.94344e-44 0)
(-1.87938e-40 1.58272e-40 0)
(-1.29444e-39 1.86764e-39 0)
(-1.15444e-38 1.35041e-38 0)
(-2.01929e-38 1.19956e-37 0)
(-8.38485e-38 1.06451e-37 0)
(-7.35837e-38 -1.21839e-37 0)
(1.29703e-44 -2.4023e-37 0)
(7.3584e-38 -1.21839e-37 0)
(8.38553e-38 1.0645e-37 0)
(2.02766e-38 1.19846e-37 0)
(1.20062e-38 1.04099e-38 0)
(-1.55943e-40 2.20858e-40 0)
(-1.1637e-39 1.74388e-39 0)
(-1.33536e-39 1.4979e-38 0)
(-1.50253e-39 1.19366e-38 0)
(-1.21058e-39 -2.89423e-38 0)
(1.21058e-39 -2.89423e-38 0)
(1.50252e-39 1.19366e-38 0)
(1.33522e-39 1.49791e-38 0)
(1.16266e-39 1.7461e-39 0)
(1.38562e-40 2.55646e-40 0)
(2.08994e-41 2.2517e-41 0)
(1.8807e-42 2.20671e-42 0)
(-5.26516e-48 3.29875e-43 0)
(-1.88078e-42 2.20677e-42 0)
(-2.09006e-41 2.25179e-41 0)
(-1.38577e-40 2.55659e-40 0)
(-1.16285e-39 1.74626e-39 0)
(-1.33713e-39 1.49813e-38 0)
(-1.52361e-39 1.19593e-38 0)
(-1.35105e-39 -2.86845e-38 0)
(2.6828e-41 -2.71736e-38 0)
(2.6828e-41 2.71736e-38 0)
(-1.35105e-39 2.86845e-38 0)
(-1.52361e-39 -1.19593e-38 0)
(-1.33713e-39 -1.49813e-38 0)
(-1.16285e-39 -1.74626e-39 0)
(-1.38592e-40 -2.55646e-40 0)
(-2.10913e-41 -2.23513e-41 0)
(-3.80377e-42 1.20411e-44 0)
(-2.12641e-41 2.25041e-41 0)
(-1.40297e-40 2.57674e-40 0)
(-1.18184e-39 1.76657e-39 0)
(-1.4546e-39 1.52143e-38 0)
(-2.5458e-39 1.34475e-38 0)
(-1.50252e-39 -1.54742e-38 0)
(4.00723e-45 -3.04739e-38 0)
(1.50259e-39 -1.54742e-38 0)
(2.54694e-39 1.34469e-38 0)
(1.46854e-39 1.51955e-38 0)
(1.2558e-39 1.34219e-39 0)
(-1.56423e-41 2.70995e-41 0)
(-1.20693e-40 1.90214e-40 0)
(-1.04062e-40 1.58617e-39 0)
(1.58423e-40 1.2535e-39 0)
(1.5489e-40 -3.06365e-39 0)
(-1.54889e-40 -3.06365e-39 0)
(-1.58416e-40 1.25351e-39 0)
(1.04126e-40 1.58633e-39 0)
(1.20356e-40 1.91853e-40 0)
(1.48212e-41 2.90404e-41 0)
(2.31291e-42 2.63317e-42 0)
(2.12324e-43 2.63128e-43 0)
(-6.26402e-49 4.00827e-44 0)
(-2.12333e-43 2.63135e-43 0)
(-2.31305e-42 2.63328e-42 0)
(-1.48229e-41 2.9042e-41 0)
(-1.20378e-40 1.91873e-40 0)
(-1.04342e-40 1.58659e-39 0)
(1.56081e-40 1.25617e-39 0)
(1.39852e-40 -3.03435e-39 0)
(-2.77579e-40 -2.86915e-39 0)
(-2.77579e-40 2.86915e-39 0)
(1.39852e-40 3.03435e-39 0)
(1.56081e-40 -1.25617e-39 0)
(-1.04342e-40 -1.58659e-39 0)
(-1.20378e-40 -1.91873e-40 0)
(-1.48246e-41 -2.90404e-41 0)
(-2.33495e-42 -2.61303e-42 0)
(-4.29575e-43 1.47879e-45 0)
(-2.35477e-42 2.63158e-42 0)
(-1.50168e-41 2.92818e-41 0)
(-1.22475e-40 1.94243e-40 0)
(-1.16829e-40 1.61298e-39 0)
(5.07623e-41 1.41872e-39 0)
(1.58416e-40 -1.64253e-39 0)
(7.40006e-46 -3.23126e-39 0)
(-1.58404e-40 -1.64253e-39 0)
(-5.05977e-41 1.4186e-39 0)
(1.18779e-40 1.61056e-39 0)
(1.32584e-40 1.46114e-40 0)
(3.07823e-41 6.25004e-41 0)
(-1.01549e-41 3.22847e-42 0)
(-7.33828e-42 1.65847e-40 0)
(2.68834e-41 1.31668e-40 0)
(2.50996e-41 -3.23683e-40 0)
(-2.50883e-41 -3.23672e-40 0)
(-2.67764e-41 1.31828e-40 0)
(8.46264e-42 1.67589e-40 0)
(1.13811e-41 2.06987e-41 0)
(1.44147e-42 3.22454e-42 0)
(2.29932e-43 2.98027e-43 0)
(2.15004e-44 3.02752e-44 0)
(-6.62961e-50 4.67073e-45 0)
(-2.15013e-44 3.02761e-44 0)
(-2.29946e-43 2.9804e-43 0)
(-1.44165e-42 3.22472e-42 0)
(-1.13833e-41 2.0701e-41 0)
(-8.48449e-42 1.67619e-40 0)
(2.65442e-41 1.32129e-40 0)
(2.36258e-41 -3.20417e-40 0)
(-3.67024e-41 -3.02672e-40 0)
(-3.67024e-41 3.02672e-40 0)
(2.36258e-41 3.20417e-40 0)
(2.65442e-41 -1.32129e-40 0)
(-8.48449e-42 -1.67619e-40 0)
(-1.13834e-41 -2.0701e-41 0)
(-1.44183e-42 -3.22454e-42 0)
(-2.32192e-43 -2.9568e-43 0)
(-4.35119e-44 1.73826e-46 0)
(-2.34221e-43 2.9784e-43 0)
(-1.46127e-42 3.25228e-42 0)
(-1.15915e-41 2.09687e-41 0)
(-9.69378e-42 1.70544e-40 0)
(1.66265e-41 1.49573e-40 0)
(2.67764e-41 -1.73827e-40 0)
(9.74657e-47 -3.41688e-40 0)
(-2.6775e-41 -1.73828e-40 0)
(-1.66074e-41 1.49555e-40 0)
(9.91372e-42 1.70245e-40 0)
(1.27128e-41 1.56302e-41 0)
(9.94961e-40 -1.73539e-41 0)
(3.64813e-41 -1.70048e-40 0)
(1.53513e-41 -6.2631e-43 0)
(4.28229e-42 1.12411e-41 0)
(2.83407e-42 -3.09708e-41 0)
(-2.70765e-42 -3.08935e-41 0)
(-2.92511e-42 1.25139e-41 0)
(7.30922e-43 1.59977e-41 0)
(1.05682e-42 2.02183e-42 0)
(1.36204e-43 3.21188e-43 0)
(2.20924e-44 3.02305e-44 0)
(2.09233e-45 3.10782e-45 0)
(-6.64929e-51 4.85336e-46 0)
(-2.09243e-45 3.10791e-45 0)
(-2.20938e-44 3.02319e-44 0)
(-1.36221e-43 3.21207e-43 0)
(-1.05703e-42 2.02207e-42 0)
(-7.33017e-43 1.60009e-41 0)
(2.90333e-42 1.25446e-41 0)
(2.5774e-42 -3.05642e-41 0)
(-3.79486e-42 -2.88362e-41 0)
(-3.79486e-42 2.88362e-41 0)
(2.5774e-42 3.05642e-41 0)
(2.90333e-42 -1.25446e-41 0)
(-7.33017e-43 -1.60009e-41 0)
(-1.05704e-42 -2.02207e-42 0)
(-1.36238e-43 -3.21188e-43 0)
(-2.23145e-44 -2.99866e-44 0)
(-4.23531e-45 1.81823e-47 0)
(-2.25137e-44 3.02109e-44 0)
(-1.38129e-43 3.24032e-43 0)
(-1.077e-42 2.04919e-42 0)
(-8.46908e-43 1.62916e-41 0)
(1.98484e-42 1.42422e-41 0)
(2.92564e-42 -1.66188e-41 0)
(1.15135e-47 -3.26441e-41 0)
(-2.92547e-42 -1.66189e-41 0)
(-1.98279e-42 1.424e-41 0)
(8.70091e-43 1.62594e-41 0)
(1.1942e-42 1.51785e-42 0)
(2.52443e-38 1.10852e-38 0)
(2.04141e-39 -1.90104e-39 0)
(1.94216e-40 -1.81659e-40 0)
(1.40608e-41 -1.05399e-41 0)
(1.20928e-42 -3.58295e-42 0)
(-1.85995e-43 -2.91144e-42 0)
(-2.63085e-43 1.15749e-42 0)
(6.14268e-44 1.48775e-42 0)
(9.14769e-44 1.90909e-43 0)
(1.19897e-44 3.0781e-44 0)
(1.96752e-45 2.93342e-45 0)
(1.88616e-46 3.04206e-46 0)
(-5.52369e-52 4.79e-47 0)
(-1.88624e-46 3.04215e-46 0)
(-1.96762e-45 2.93357e-45 0)
(-1.19907e-44 3.07832e-44 0)
(-9.14856e-44 1.90938e-43 0)
(-6.14115e-44 1.48816e-42 0)
(2.6474e-43 1.16257e-42 0)
(2.34494e-43 -2.84134e-42 0)
(-3.40128e-43 -2.67855e-42 0)
(-3.40128e-43 2.67855e-42 0)
(2.34494e-43 2.84134e-42 0)
(2.6474e-43 -1.16257e-42 0)
(-6.14115e-44 -1.48816e-42 0)
(-9.14857e-44 -1.90938e-43 0)
(-1.19923e-44 -3.07812e-44 0)
(-1.98765e-45 -2.90936e-45 0)
(-3.81867e-46 1.80256e-48 0)
(-2.00573e-45 2.93149e-45 0)
(-1.21626e-44 3.10594e-44 0)
(-9.32615e-44 1.93567e-43 0)
(-7.14131e-44 1.51599e-42 0)
(1.85455e-43 1.3224e-42 0)
(2.66727e-43 -1.54735e-42 0)
(1.18835e-48 -3.03789e-42 0)
(-2.6671e-43 -1.54737e-42 0)
(-1.85257e-43 1.32215e-42 0)
(7.36039e-44 1.5127e-42 0)
(1.04272e-43 1.4268e-43 0)
(2.2982e-34 -4.16655e-31 0)
(7.16671e-32 -3.98208e-32 0)
(6.79376e-33 -7.48776e-30 0)
(-7.83108e-33 -5.01552e-31 0)
(1.20986e-31 9.14384e-31 0)
(-3.35749e-32 6.29879e-32 0)
(6.79205e-33 8.46065e-30 0)
(9.37201e-33 5.702e-31 0)
(2.43019e-34 4.86275e-31 0)
(8.02052e-32 4.68518e-32 0)
(7.75083e-36 2.51805e-31 0)
(-5.61301e-33 2.49964e-32 0)
(1.91641e-35 1.01485e-30 0)
(-1.42749e-31 9.82173e-32 0)
(3.49759e-35 1.44461e-29 0)
(-2.63886e-31 1.01997e-30 0)
(1.09459e-36 2.79902e-29 0)
(-8.28887e-33 1.92805e-30 0)
(-3.48978e-35 1.53023e-29 0)
(2.63301e-31 1.07734e-30 0)
(1.51729e-31 1.02051e-31 0)
(1.25271e-32 1.68638e-32 0)
(1.39914e-33 1.38432e-33 0)
(9.77212e-35 1.5058e-34 0)
(8.06353e-36 3.54701e-35 0)
(-2.68399e-38 2.92595e-34 0)
(-6.8001e-36 4.2812e-33 0)
(-1.04035e-34 3.92531e-32 0)
(-9.65797e-34 5.56431e-31 0)
(-1.24093e-32 3.18595e-30 0)
(-1.15412e-32 5.07697e-29 0)
(1.15412e-32 5.07697e-29 0)
(1.2409e-32 3.18594e-30 0)
(9.42018e-34 5.56396e-31 0)
(-7.73945e-34 3.8966e-32 0)
(-2.35786e-32 5.36317e-34 0)
(-4.20246e-31 2.91677e-34 0)
(-2.35854e-32 3.76937e-33 0)
(-8.7798e-34 2.88581e-34 0)
(-2.37737e-35 3.51863e-35 0)
(-1.81031e-37 2.42849e-36 0)
(7.07588e-37 5.12494e-37 0)
(4.48231e-36 2.95463e-36 0)
(6.68644e-33 -2.64584e-33 0)
(9.47507e-34 -1.85561e-34 0)
(8.04593e-35 -1.53175e-35 0)
(8.02422e-36 -1.1109e-36 0)
(-7.96743e-34 -2.55721e-32 0)
(-7.29197e-35 -1.03243e-33 0)
(-4.65275e-36 -3.38935e-35 0)
(-8.55022e-38 -9.33737e-37 0)
(-5.40827e-33 3.19615e-33 0)
(-2.67198e-34 1.25261e-34 0)
(-1.23185e-35 3.13219e-36 0)
(2.83579e-36 -2.5142e-40 0)
(9.44989e-34 2.91802e-32 0)
(1.72765e-34 1.17827e-33 0)
(1.70577e-35 3.80319e-35 0)
(2.09246e-36 9.77438e-37 0)
(8.01211e-33 3.00036e-33 0)
(1.12728e-33 1.49829e-34 0)
(9.79806e-35 7.31046e-36 0)
(9.76593e-36 3.74987e-37 0)
(-6.63448e-34 3.08127e-33 0)
(-1.00181e-34 2.56205e-34 0)
(-9.43858e-36 2.44444e-35 0)
(-9.73126e-37 1.89974e-36 0)
(-1.46243e-32 7.74522e-33 0)
(-2.0604e-33 4.84361e-34 0)
(-1.80746e-34 3.46711e-35 0)
(-1.79716e-35 2.34811e-36 0)
(-2.65722e-32 5.34561e-32 0)
(-3.72807e-33 2.19915e-33 0)
(-3.24422e-34 6.74027e-35 0)
(-3.21709e-35 1.29287e-36 0)
(-8.2916e-34 9.7856e-32 0)
(-1.16149e-34 3.84563e-33 0)
(-1.00757e-35 9.78229e-35 0)
(-9.98104e-37 2.04736e-37 0)
(2.65043e-32 5.62533e-32 0)
(3.71841e-33 2.30217e-33 0)
(3.23538e-34 6.92046e-35 0)
(3.20826e-35 1.21373e-36 0)
(1.55363e-32 7.91498e-33 0)
(2.18996e-33 4.87001e-34 0)
(1.92124e-34 3.41112e-35 0)
(1.91094e-35 2.27857e-36 0)
(1.4741e-33 2.08374e-33 0)
(2.18157e-34 1.73812e-34 0)
(2.03883e-35 1.65772e-35 0)
(2.08584e-36 1.28885e-36 0)
(1.68603e-34 1.92801e-34 0)
(2.73388e-35 1.76985e-35 0)
(2.6611e-36 1.78456e-36 0)
(2.85021e-37 1.45414e-37 0)
(1.23796e-35 2.36888e-35 0)
(2.10164e-36 2.3151e-36 0)
(2.11926e-37 2.47207e-37 0)
(2.32808e-38 2.08827e-38 0)
(-6.88888e-37 5.08421e-36 0)
(-6.22455e-38 7.50876e-37 0)
(-2.52757e-38 7.93292e-38 0)
(-2.60176e-39 8.34675e-39 0)
(-2.73338e-35 3.84732e-35 0)
(-3.77099e-36 6.32468e-36 0)
(-6.60132e-37 6.43988e-37 0)
(-6.88539e-38 6.99743e-38 0)
(-3.24564e-34 5.28651e-34 0)
(-4.41325e-35 8.27709e-35 0)
(-7.34985e-36 8.04271e-36 0)
(-7.49313e-37 8.50698e-37 0)
(-4.71099e-33 4.74765e-33 0)
(-6.00668e-34 6.52612e-34 0)
(-9.58525e-35 5.96759e-35 0)
(-9.36066e-36 5.92742e-36 0)
(-4.04588e-32 5.94609e-32 0)
(-5.02616e-33 7.2959e-33 0)
(-7.29246e-34 6.05027e-34 0)
(-6.82557e-35 5.69372e-35 0)
(-5.06166e-31 3.30717e-31 0)
(-5.41805e-32 2.36826e-32 0)
(-7.53419e-33 1.30716e-33 0)
(-6.61719e-34 7.63914e-35 0)
(-4.7012e-31 3.77358e-30 0)
(-4.97145e-32 1.97658e-31 0)
(-6.89407e-33 7.79643e-33 0)
(-6.02139e-34 2.02363e-34 0)
(4.7012e-31 3.77358e-30 0)
(4.97145e-32 1.97658e-31 0)
(6.89405e-33 7.79646e-33 0)
(6.02137e-34 2.02368e-34 0)
(5.06166e-31 3.30719e-31 0)
(5.41802e-32 2.36854e-32 0)
(7.53391e-33 1.30756e-33 0)
(6.61679e-34 7.64532e-35 0)
(4.04353e-32 5.94979e-32 0)
(5.01985e-33 7.33718e-33 0)
(7.25721e-34 6.10431e-34 0)
(6.77857e-35 5.77538e-35 0)
(3.84224e-33 5.05099e-33 0)
(4.49631e-34 9.89683e-34 0)
(4.03168e-35 1.02244e-34 0)
(2.71081e-36 1.17736e-35 0)
(-2.30463e-32 4.48694e-33 0)
(-2.74242e-33 4.41638e-33 0)
(-5.3858e-34 4.80305e-34 0)
(-5.59903e-35 6.35225e-35 0)
(-4.17401e-31 3.83135e-35 0)
(-3.56975e-32 6.30834e-36 0)
(-6.74807e-33 6.44234e-37 0)
(-6.23559e-34 8.19661e-38 0)
(-2.33691e-32 -3.95502e-33 0)
(-2.7863e-33 -4.33304e-33 0)
(-5.45872e-34 -4.72175e-34 0)
(-5.66398e-35 -6.24971e-35 0)
(-8.68629e-34 -3.03118e-34 0)
(-1.50986e-34 -3.36989e-34 0)
(-5.53381e-35 -4.21422e-35 0)
(-5.30374e-36 -3.30302e-36 0)
(-2.34422e-35 -3.69923e-35 0)
(-5.81368e-36 -4.08137e-35 0)
(-5.52421e-37 -8.47324e-37 0)
(2.11848e-35 2.79179e-35 0)
(3.11118e-37 -1.89399e-36 0)
(5.04852e-36 3.02361e-36 0)
(3.40031e-35 5.96315e-35 0)
(2.64026e-34 3.93314e-34 0)
(6.88997e-36 3.7329e-36 0)
(7.12447e-35 3.93636e-35 0)
(4.82566e-34 4.2714e-34 0)
(4.13286e-33 3.07386e-33 0)
(4.72042e-35 3.90644e-35 0)
(5.19681e-34 3.99661e-34 0)
(4.06129e-33 4.583e-33 0)
(4.00552e-32 3.40458e-32 0)
(5.87195e-37 -6.84747e-38 0)
(4.42184e-38 -1.86287e-39 0)
(2.81507e-39 -7.31677e-41 0)
(1.85452e-40 -3.5657e-42 0)
(1.09132e-41 -4.05038e-43 0)
(6.30361e-43 -1.93478e-43 0)
(1.84538e-44 7.17717e-44 0)
(5.62557e-45 9.33879e-44 0)
(5.73285e-45 1.21783e-44 0)
(7.50773e-46 2.00563e-45 0)
(1.23521e-46 1.9405e-46 0)
(1.19119e-47 2.04126e-47 0)
(4.48286e-52 3.25156e-48 0)
(-1.19016e-47 2.04135e-47 0)
(-1.23297e-46 1.94065e-46 0)
(-7.46002e-46 2.00588e-45 0)
(-5.63698e-45 1.21823e-44 0)
(-3.72818e-45 9.34514e-44 0)
(1.66419e-44 7.27495e-44 0)
(1.47223e-44 -1.78361e-43 0)
(-2.12405e-44 -1.68011e-43 0)
(-2.12405e-44 1.68011e-43 0)
(1.47223e-44 1.78361e-43 0)
(1.66419e-44 -7.27495e-44 0)
(-3.72818e-45 -9.34514e-44 0)
(-5.63699e-45 -1.21823e-44 0)
(-7.46103e-46 -2.00575e-45 0)
(-1.24566e-46 -1.92422e-46 0)
(-2.40969e-47 1.23458e-49 0)
(-1.2571e-46 1.93923e-46 0)
(-7.56843e-46 2.02439e-45 0)
(-5.74819e-45 1.23559e-44 0)
(-4.34952e-45 9.52615e-44 0)
(1.17642e-44 8.2904e-44 0)
(1.67665e-44 -9.73065e-44 0)
(8.34469e-50 -1.90914e-43 0)
(-1.67653e-44 -9.73078e-44 0)
(-1.17508e-44 8.28862e-44 0)
(4.49817e-45 9.5036e-44 0)
(6.50761e-45 9.02987e-45 0)
(1.26509e-38 -2.93283e-38 0)
(3.14042e-39 -1.49052e-39 0)
(3.12857e-40 -1.49736e-40 0)
(2.98929e-41 -1.17397e-41 0)
(2.22551e-42 -9.54499e-43 0)
(1.63163e-43 -7.29578e-44 0)
(9.68812e-45 -3.11399e-47 0)
(8.45904e-46 5.0527e-45 0)
(3.15337e-46 6.82646e-46 0)
(3.92561e-47 1.14213e-46 0)
(6.3181e-48 1.11445e-47 0)
(6.10588e-49 1.17441e-48 0)
(2.85392e-52 1.87744e-49 0)
(-6.04722e-49 1.17636e-48 0)
(-6.20444e-48 1.1184e-47 0)
(-3.70987e-47 1.14967e-46 0)
(-2.77107e-46 6.96746e-46 0)
(-1.81836e-46 5.29641e-45 0)
(8.22434e-46 4.11274e-45 0)
(7.26613e-46 -1.01046e-44 0)
(-1.04763e-45 -9.51283e-45 0)
(-1.04763e-45 9.51283e-45 0)
(7.26613e-46 1.01046e-44 0)
(8.22434e-46 -4.11274e-45 0)
(-1.81836e-46 -5.29641e-45 0)
(-2.77108e-46 -6.96745e-46 0)
(-3.7104e-47 -1.14959e-46 0)
(-6.26943e-48 -1.10891e-47 0)
(-1.22462e-48 7.1214e-51 0)
(-6.32798e-48 1.11758e-47 0)
(-3.76492e-47 1.16034e-46 0)
(-2.82697e-46 7.06752e-46 0)
(-2.12661e-46 5.40009e-45 0)
(5.831e-46 4.69325e-45 0)
(8.28704e-46 -5.51732e-45 0)
(4.65123e-51 -1.08227e-44 0)
(-8.28639e-46 -5.51739e-45 0)
(-5.82387e-46 4.69214e-45 0)
(2.20488e-46 5.38658e-45 0)
(3.22292e-46 5.16432e-46 0)
(3.52573e-37 -8.10173e-39 0)
(4.70393e-38 -6.47926e-40 0)
(3.82557e-39 -4.49115e-41 0)
(3.32366e-40 -2.64559e-42 0)
(2.30338e-41 -1.55874e-43 0)
(1.63286e-42 -8.88863e-45 0)
(1.00917e-43 -2.42693e-46 0)
(6.25301e-45 2.43739e-46 0)
(3.65704e-46 3.43191e-47 0)
(2.14732e-47 5.84779e-48 0)
(1.33495e-48 5.76788e-49 0)
(8.30308e-50 6.11767e-50 0)
(2.50517e-51 9.8428e-51 0)
(-3.10594e-50 6.12863e-50 0)
(-3.18528e-49 5.79249e-49 0)
(-1.90128e-48 5.90079e-48 0)
(-1.41054e-47 3.54404e-47 0)
(-9.21693e-48 2.66331e-46 0)
(4.19166e-47 2.06211e-46 0)
(3.69998e-47 -5.07916e-46 0)
(-5.33564e-47 -4.77858e-46 0)
(-5.33564e-47 4.77858e-46 0)
(3.69998e-47 5.07916e-46 0)
(4.19166e-47 -2.06211e-46 0)
(-9.21693e-48 -2.66331e-46 0)
(-1.41054e-47 -3.54404e-47 0)
(-1.90156e-48 -5.90038e-48 0)
(-3.21884e-49 -5.7427e-49 0)
(-6.31385e-50 3.74565e-52 0)
(-3.24903e-49 5.78815e-49 0)
(-1.92967e-48 5.95631e-48 0)
(-1.43922e-47 3.59583e-47 0)
(-1.07961e-47 2.71647e-46 0)
(2.97473e-47 2.35684e-46 0)
(4.22385e-47 -2.77666e-46 0)
(2.55886e-52 -5.44463e-46 0)
(-4.2235e-47 -2.7767e-46 0)
(-2.97091e-47 2.35623e-46 0)
(1.1211e-47 2.70928e-46 0)
(1.65131e-47 2.61856e-47 0)
(1.70737e-37 2.35957e-38 0)
(1.49297e-38 1.02674e-39 0)
(1.05317e-39 1.18713e-40 0)
(7.80192e-41 9.9707e-42 0)
(5.01632e-42 8.42109e-43 0)
(3.27202e-43 5.72932e-44 0)
(1.93092e-44 3.85663e-45 0)
(1.13588e-45 2.41944e-46 0)
(6.26207e-47 1.51348e-47 0)
(3.42553e-48 1.01893e-48 0)
(1.84544e-49 6.75487e-50 0)
(9.93527e-51 5.0291e-51 0)
(4.00797e-52 6.00424e-52 0)
(-1.47963e-51 3.17813e-51 0)
(-1.52135e-50 3.00175e-50 0)
(-9.04226e-50 3.04598e-49 0)
(-6.65003e-49 1.82835e-48 0)
(-4.32571e-49 1.36472e-47 0)
(1.97687e-48 1.05458e-47 0)
(1.74307e-48 -2.60179e-47 0)
(-2.51522e-48 -2.44673e-47 0)
(-2.51522e-48 2.44673e-47 0)
(1.74307e-48 2.60179e-47 0)
(1.97687e-48 -1.05458e-47 0)
(-4.32571e-49 -1.36472e-47 0)
(-6.65004e-49 -1.82835e-48 0)
(-9.04357e-50 -3.04577e-49 0)
(-1.53758e-50 -2.97591e-50 0)
(-3.03438e-51 1.9402e-53 0)
(-1.55211e-50 2.99949e-50 0)
(-9.17864e-50 3.07473e-49 0)
(-6.78694e-49 1.85519e-48 0)
(-5.07606e-49 1.39215e-47 0)
(1.40396e-48 1.20661e-47 0)
(1.99224e-48 -1.42322e-47 0)
(1.30206e-53 -2.79036e-47 0)
(-1.99206e-48 -1.42325e-47 0)
(-1.40207e-48 1.20627e-47 0)
(5.27854e-49 1.38832e-47 0)
(7.82207e-49 1.35128e-48 0)
(7.03086e-37 2.3094e-38 0)
(5.25754e-38 1.41606e-39 0)
(3.32426e-39 9.81148e-41 0)
(2.17972e-40 6.12991e-42 0)
(1.27493e-41 3.90335e-43 0)
(7.52659e-43 2.2659e-44 0)
(4.08922e-44 1.31074e-45 0)
(2.20968e-45 7.12035e-47 0)
(1.12074e-46 3.83571e-48 0)
(5.60901e-48 2.0283e-49 0)
(2.67168e-49 1.07253e-50 0)
(1.25117e-50 5.89953e-52 0)
(5.56782e-52 4.48638e-53 0)
(-4.675e-53 1.53977e-52 0)
(-7.19545e-52 1.44457e-51 0)
(-4.28426e-51 1.45703e-50 0)
(-3.13383e-50 8.71184e-50 0)
(-2.03229e-50 6.44675e-49 0)
(9.31592e-50 4.96983e-49 0)
(8.20791e-50 -1.22861e-48 0)
(-1.18494e-49 -1.15477e-48 0)
(-1.18494e-49 1.15477e-48 0)
(8.20791e-50 1.22861e-48 0)
(9.31592e-50 -4.96983e-49 0)
(-2.0323e-50 -6.44675e-49 0)
(-3.13383e-50 -8.71183e-50 0)
(-4.28492e-51 -1.45693e-50 0)
(-7.28236e-52 -1.43203e-51 0)
(-1.44129e-52 9.39971e-55 0)
(-7.35132e-52 1.44344e-51 0)
(-4.34908e-51 1.47089e-50 0)
(-3.19865e-50 8.84096e-50 0)
(-2.38784e-50 6.57788e-49 0)
(6.61847e-50 5.69367e-49 0)
(9.38875e-50 -6.72652e-49 0)
(6.46125e-55 -1.31849e-48 0)
(-9.38788e-50 -6.72664e-49 0)
(-6.60926e-50 5.69198e-49 0)
(2.48552e-50 6.55908e-49 0)
(3.70268e-50 6.43156e-50 0)
(-7.31974e-38 1.44204e-37 0)
(-5.54507e-39 9.02366e-39 0)
(-3.58304e-40 5.87529e-40 0)
(-2.35749e-41 3.42565e-41 0)
(-1.39201e-42 2.01333e-42 0)
(-8.19978e-44 1.09035e-43 0)
(-4.46325e-45 5.86576e-45 0)
(-2.39754e-46 2.96361e-46 0)
(-1.21166e-47 1.47599e-47 0)
(-6.00813e-49 6.99329e-49 0)
(-2.83461e-50 3.2536e-50 0)
(-1.30784e-51 1.45407e-51 0)
(-5.81249e-53 6.43182e-53 0)
(-5.71539e-54 9.92339e-54 0)
(-3.23482e-53 6.87523e-53 0)
(-1.91512e-52 6.90407e-52 0)
(-1.39138e-51 4.1302e-51 0)
(-8.99015e-52 3.04002e-50 0)
(4.13608e-51 2.33972e-50 0)
(3.6408e-51 -5.79197e-50 0)
(-5.25916e-51 -5.44185e-50 0)
(-5.25916e-51 5.44185e-50 0)
(3.6408e-51 5.79197e-50 0)
(4.13608e-51 -2.33972e-50 0)
(-8.99015e-52 -3.04002e-50 0)
(-1.39138e-51 -4.13019e-51 0)
(-1.91535e-52 -6.90355e-52 0)
(-3.25871e-53 -6.8049e-53 0)
(-6.47574e-54 4.45717e-56 0)
(-3.28968e-53 6.85913e-53 0)
(-1.94418e-52 6.96981e-52 0)
(-1.42037e-51 4.19157e-51 0)
(-1.05791e-51 3.10213e-50 0)
(2.93978e-51 2.68292e-50 0)
(4.16867e-51 -3.17256e-50 0)
(3.01822e-56 -6.21811e-50 0)
(-4.16827e-51 -3.17263e-50 0)
(-2.93555e-51 2.68209e-50 0)
(1.10224e-51 3.09302e-50 0)
(1.6502e-51 3.05102e-51 0)
(-1.29696e-36 1.65776e-37 0)
(-9.65485e-38 1.01076e-38 0)
(-6.0979e-39 6.50959e-40 0)
(-3.97645e-40 3.77336e-41 0)
(-2.31839e-41 2.20867e-42 0)
(-1.36029e-42 1.19165e-43 0)
(-7.35676e-44 6.38875e-45 0)
(-3.94924e-45 3.21643e-46 0)
(-1.99149e-46 1.59636e-47 0)
(-9.8935e-48 7.53342e-49 0)
(-4.67437e-49 3.48984e-50 0)
(-2.1669e-50 1.55029e-51 0)
(-9.63374e-52 6.74836e-53 0)
(-4.20766e-53 3.15607e-54 0)
(-3.17958e-54 3.20091e-54 0)
(-8.51126e-54 3.09046e-53 0)
(-6.10448e-53 1.84674e-52 0)
(-3.93386e-53 1.35025e-51 0)
(1.81438e-52 1.03715e-51 0)
(1.59606e-52 -2.57172e-51 0)
(-2.30648e-52 -2.41519e-51 0)
(-2.30648e-52 2.41519e-51 0)
(1.59606e-52 2.57172e-51 0)
(1.81438e-52 -1.03715e-51 0)
(-3.93384e-53 -1.35025e-51 0)
(-6.10421e-53 -1.84674e-52 0)
(-8.44016e-54 -3.08978e-53 0)
(-1.43378e-54 -3.05799e-54 0)
(-2.85497e-55 2.00575e-57 0)
(-1.44741e-54 3.08241e-54 0)
(-8.56729e-54 3.11955e-53 0)
(-6.23173e-53 1.87432e-52 0)
(-4.63425e-53 1.37803e-51 0)
(1.28992e-52 1.19058e-51 0)
(1.82872e-52 -1.40956e-51 0)
(1.37252e-57 -2.76229e-51 0)
(-1.82854e-52 -1.40959e-51 0)
(-1.28803e-52 1.19019e-51 0)
(4.83182e-53 1.37387e-51 0)
(7.26534e-53 1.36429e-52 0)
(-2.31074e-36 -3.36394e-38 0)
(-1.71696e-37 -4.496e-39 0)
(-1.08097e-38 -3.414e-40 0)
(-7.03884e-40 -2.06288e-41 0)
(-4.09451e-41 -1.22179e-42 0)
(-2.39959e-42 -6.6226e-44 0)
(-1.29553e-43 -3.55674e-45 0)
(-6.94785e-45 -1.79371e-46 0)
(-3.49894e-46 -8.91044e-48 0)
(-1.73679e-47 -4.20976e-49 0)
(-8.19705e-49 -1.9514e-50 0)
(-3.7972e-50 -8.67517e-52 0)
(-1.68669e-51 -3.77593e-53 0)
(-7.33813e-53 -1.57125e-54 0)
(-3.13853e-54 7.0886e-56 0)
(-4.8152e-55 1.35714e-54 0)
(-2.56011e-54 8.13891e-54 0)
(-1.64175e-54 5.92494e-53 0)
(7.59393e-54 4.54463e-53 0)
(6.675e-54 -1.12819e-52 0)
(-9.65085e-54 -1.05918e-52 0)
(-9.65085e-54 1.05918e-52 0)
(6.675e-54 1.12819e-52 0)
(7.59394e-54 -4.54463e-53 0)
(-1.64156e-54 -5.92494e-53 0)
(-2.55509e-54 -8.13901e-54 0)
(-3.55174e-55 -1.35964e-54 0)
(-6.02833e-56 -1.34837e-55 0)
(-1.20363e-56 8.80753e-59 0)
(-6.08571e-56 1.35912e-55 0)
(-3.60535e-55 1.37274e-54 0)
(-2.60869e-54 8.26064e-54 0)
(-1.93635e-54 6.04718e-53 0)
(5.40061e-54 5.22101e-53 0)
(7.65422e-54 -6.18591e-53 0)
(5.94776e-59 -1.21218e-52 0)
(-7.65344e-54 -6.18604e-53 0)
(-5.39249e-54 5.21928e-53 0)
(2.02029e-54 6.02858e-53 0)
(3.05084e-54 6.0187e-54 0)
(-7.15564e-38 -2.29989e-37 0)
(-5.31288e-39 -1.87745e-38 0)
(-3.3406e-40 -1.30945e-39 0)
(-2.17396e-41 -7.74574e-41 0)
(-1.26341e-42 -4.55905e-42 0)
(-7.40056e-44 -2.46364e-43 0)
(-3.99268e-45 -1.32132e-44 0)
(-2.14035e-46 -6.65348e-46 0)
(-1.07727e-47 -3.30214e-47 0)
(-5.34539e-49 -1.55829e-48 0)
(-2.52169e-50 -7.21766e-50 0)
(-1.16778e-51 -3.20567e-51 0)
(-5.18523e-53 -1.39439e-52 0)
(-2.25533e-54 -5.8498e-54 0)
(-9.70512e-56 -2.3442e-55 0)
(-1.85457e-56 4.76266e-56 0)
(-1.05269e-55 3.42175e-55 0)
(-6.73836e-56 2.48054e-54 0)
(3.1237e-55 1.8995e-54 0)
(2.7441e-55 -4.72194e-54 0)
(-3.96892e-55 -4.43144e-54 0)
(-3.96892e-55 4.43144e-54 0)
(2.7441e-55 4.72194e-54 0)
(3.1237e-55 -1.8995e-54 0)
(-6.73776e-56 -2.48055e-54 0)
(-1.05115e-55 -3.42547e-55 0)
(-1.46654e-56 -5.71718e-56 0)
(-2.4831e-57 -5.68479e-57 0)
(-4.96454e-58 3.28011e-60 0)
(-2.50668e-57 5.73048e-57 0)
(-1.48865e-56 5.77235e-56 0)
(-1.07322e-55 3.47676e-55 0)
(-7.95558e-56 2.53194e-54 0)
(2.22192e-55 2.18422e-54 0)
(3.14853e-55 -2.59028e-54 0)
(2.53169e-60 -5.07545e-54 0)
(-3.1482e-55 -2.59033e-54 0)
(-2.21853e-55 2.18347e-54 0)
(8.30461e-56 2.524e-54 0)
(1.25878e-55 2.53509e-55 0)
(2.30425e-36 -4.68812e-38 0)
(1.71211e-37 -5.45283e-39 0)
(1.07787e-38 -4.06214e-40 0)
(7.01853e-40 -2.44374e-41 0)
(4.08256e-41 -1.44565e-42 0)
(2.39256e-42 -7.83226e-44 0)
(1.2917e-43 -4.2057e-45 0)
(6.92719e-45 -2.12058e-46 0)
(3.48846e-46 -1.05332e-47 0)
(1.73156e-47 -4.97568e-49 0)
(8.17225e-49 -2.30622e-50 0)
(3.78566e-50 -1.02514e-51 0)
(1.68154e-51 -4.46179e-53 0)
(7.31503e-53 -1.87328e-54 0)
(3.06929e-54 -7.67012e-56 0)
(1.25423e-55 -7.06097e-58 0)
(8.50987e-58 1.40232e-56 0)
(-2.46416e-57 1.02055e-55 0)
(1.23673e-56 7.806e-56 0)
(1.08507e-56 -1.94232e-55 0)
(-1.57003e-56 -1.82233e-55 0)
(-1.56998e-56 1.82234e-55 0)
(1.08506e-56 1.94247e-55 0)
(1.23594e-56 -7.80529e-56 0)
(-2.65945e-57 -1.02059e-55 0)
(-4.15975e-57 -1.41461e-56 0)
(-5.82361e-58 -2.35518e-57 0)
(-9.89192e-59 -2.23166e-58 0)
(-2.02172e-59 -1.14332e-59 0)
(-9.89635e-59 2.3492e-58 0)
(-5.91554e-58 2.37764e-57 0)
(-4.2471e-57 1.43571e-56 0)
(-3.1434e-57 1.04181e-55 0)
(8.79349e-57 8.9822e-56 0)
(1.24582e-56 -1.06584e-55 0)
(7.61548e-61 -2.08833e-55 0)
(-1.2457e-56 -1.06569e-55 0)
(-8.78066e-57 8.97854e-56 0)
(3.28274e-57 1.03845e-55 0)
(4.99565e-57 1.04734e-56 0)
(1.37929e-36 1.59583e-37 0)
(1.02697e-37 9.69544e-39 0)
(6.48687e-39 6.23482e-40 0)
(4.2306e-40 3.60998e-41 0)
(2.46673e-41 2.11162e-42 0)
(1.44744e-42 1.1384e-43 0)
(7.82837e-44 6.0998e-45 0)
(4.20261e-45 3.06889e-46 0)
(2.11931e-46 1.52232e-47 0)
(1.05288e-47 7.17951e-49 0)
(4.97461e-49 3.32407e-50 0)
(2.30613e-50 1.47566e-51 0)
(1.02527e-51 6.41672e-53 0)
(4.46301e-53 2.69123e-54 0)
(1.87408e-54 1.10451e-55 0)
(7.69537e-56 4.473e-57 0)
(2.90093e-57 6.55326e-58 0)
(2.35401e-59 4.01489e-57 0)
(4.88417e-58 3.20139e-57 0)