/*--------------------------------*- C++ -*----------------------------------*\
| =========                 |                                                 |
| \\      /  F ield         | OpenFOAM: The Open Source CFD Toolbox           |
|  \\    /   O peration     | Version:  2.4.0                                 |
|   \\  /    A nd           | Web:      www.OpenFOAM.org                      |
|    \\/     M anipulation  |                                                 |
\*---------------------------------------------------------------------------*/
FoamFile
{
    version     2.0;
    format      ascii;
    class       surfaceScalarField;
    location    "0.55";
    object      phi;
}
// * * * * * * * * * * * * * * * * * * * * * * * * * * * * * * * * * * * * * //

dimensions      [0 3 -1 0 0 0 0];

internalField   nonuniform List<scalar> 
3742
(
-7.54151e-37
5.70661e-37
-1.03555e-37
5.80927e-38
-1.09405e-38
6.33693e-39
-1.19199e-39
5.74306e-40
-1.11539e-40
5.2974e-41
-1.03776e-41
4.36756e-42
-8.7375e-43
3.57251e-43
-7.20612e-44
2.70379e-44
-5.53128e-45
2.00687e-45
-4.13443e-46
1.40508e-46
-2.92392e-47
9.60155e-48
-2.00989e-48
6.26215e-49
-1.31878e-49
3.97968e-50
-5.00427e-51
2.42047e-51
5.62369e-50
-5.32169e-53
9.03168e-49
-3.16736e-51
1.39534e-47
-4.99508e-50
2.06212e-46
-7.59981e-49
2.95955e-45
-1.13385e-47
4.02696e-44
-1.62425e-46
5.33159e-43
-2.28124e-45
6.59829e-42
-3.0427e-44
7.98909e-41
-3.9843e-43
8.83167e-40
-4.87299e-42
-5.88521e-41
-1.73599e-34
1.51776e-36
-8.89569e-34
1.16219e-35
-7.41598e-34
9.01408e-35
-3.10882e-32
1.81994e-35
2.02424e-32
-1.7563e-34
1.02622e-32
-3.6914e-35
-9.73487e-33
1.11373e-34
3.00149e-34
6.10204e-36
2.90125e-34
-6.14903e-35
1.10757e-32
-3.76804e-35
1.03617e-33
-1.07341e-35
1.14077e-32
-1.241e-34
7.64457e-34
-1.55679e-36
1.09162e-32
3.34248e-35
-1.00749e-32
3.42957e-35
1.01457e-32
8.1185e-36
-1.05677e-32
3.00014e-35
-2.08197e-34
6.50681e-38
-2.83676e-34
-2.93586e-35
-5.67522e-35
-3.74102e-36
-6.14049e-36
-5.70661e-37
-8.16304e-37
-5.80927e-38
-8.17015e-38
-6.33693e-39
-8.70198e-39
-5.74306e-40
-7.89386e-40
-5.2974e-41
-7.22388e-41
-4.36756e-42
-5.96058e-42
-3.57251e-43
-4.85429e-43
-2.70379e-44
-3.67314e-44
-2.00687e-45
-2.71832e-45
-1.40508e-46
-1.90184e-46
-9.60155e-48
-1.29676e-47
-6.26216e-49
-8.44953e-49
-3.98049e-50
-5.32116e-50
-2.54048e-51
3.80504e-51
-1.67358e-51
1.1959e-49
-2.06052e-50
1.92648e-48
-2.70286e-49
2.93618e-47
-3.34864e-48
4.28076e-46
-4.07821e-47
5.88933e-45
-4.65163e-46
7.78667e-44
-5.32529e-45
9.60775e-43
-5.68717e-44
1.1459e-41
-6.31273e-43
1.24928e-40
-6.54315e-42
-7.26468e-41
-1.9041e-35
2.0011e-36
-9.30488e-35
1.31061e-35
-6.39023e-34
9.95179e-35
-7.48817e-34
1.98826e-35
3.23389e-34
-1.93731e-34
5.50697e-34
-4.08588e-35
-1.21592e-34
1.22738e-34
-1.5491e-34
6.83329e-36
2.18555e-34
-6.78699e-35
4.49803e-34
-4.15183e-35
4.83891e-34
-8.73568e-36
4.83665e-34
-4.79595e-36
4.54666e-34
1.56248e-36
2.45248e-34
3.71506e-35
3.0557e-35
3.79378e-35
-2.26104e-35
9.10671e-36
-2.08422e-34
3.3111e-35
-2.09176e-34
7.38238e-38
-2.9685e-35
-3.23866e-35
-6.21653e-36
-4.19458e-36
-7.54152e-37
-6.42677e-37
-1.03555e-37
-6.58886e-38
-1.09405e-38
-7.20756e-39
-1.19199e-39
-6.55868e-40
-1.11539e-40
-6.06238e-41
-1.03776e-41
-5.01176e-42
-8.7375e-43
-4.10619e-43
-7.20612e-44
-3.11376e-44
-5.53128e-45
-2.31425e-45
-4.13443e-46
-1.6227e-46
-2.92392e-47
-1.1101e-47
-2.00991e-48
-7.24872e-49
-1.32226e-49
-4.61834e-50
-1.03168e-50
-3.86933e-51
-2.36541e-50
-1.47265e-50
-2.61405e-49
-1.90805e-49
-2.79937e-48
-2.41593e-48
-2.61097e-47
-2.83463e-47
-2.23145e-46
-3.21667e-46
-1.35114e-45
-3.27451e-45
-4.57494e-45
-3.24198e-44
7.16026e-44
-2.69635e-43
1.52464e-42
-2.21783e-42
2.1439e-41
-1.29823e-41
-7.95329e-41
-2.45721e-36
2.33604e-36
-6.81598e-36
2.2971e-36
-3.14407e-35
1.11394e-35
-3.58883e-35
1.96913e-36
1.40888e-35
-2.05974e-35
2.53086e-35
-4.49481e-36
-4.48303e-36
1.29308e-35
-5.56925e-36
8.33009e-37
1.16801e-35
-7.27342e-36
2.37177e-35
-4.58969e-36
2.61994e-35
-1.09024e-36
2.53535e-35
-3.15827e-36
2.33299e-35
1.94254e-37
1.3223e-35
4.03078e-36
2.17279e-36
4.14104e-36
-1.22662e-36
1.13072e-36
-1.03736e-35
3.5418e-36
-1.04746e-35
1.02116e-38
-2.06219e-36
-3.44712e-36
-7.19486e-37
-5.18577e-37
-1.01026e-37
-8.33429e-38
-1.58776e-38
-9.08374e-39
-1.78988e-39
-1.02214e-39
-2.06065e-40
-9.62222e-41
-1.99352e-41
-9.06448e-42
-1.90693e-42
-7.65652e-43
-1.63611e-43
-6.35933e-44
-1.37044e-44
-4.89425e-45
-1.06374e-45
-3.67521e-46
-8.02318e-47
-2.60494e-47
-5.71184e-48
-1.79641e-48
-3.94788e-49
-1.18309e-49
-2.76745e-50
-8.19267e-51
-2.31289e-50
-9.41391e-51
-2.70177e-49
-1.24826e-49
-3.15554e-48
-1.64461e-48
-3.54369e-47
-2.0963e-47
-3.58401e-46
-2.48099e-46
-3.48296e-45
-2.84346e-45
-2.86544e-44
-2.93345e-44
-2.26977e-43
-2.94567e-43
-1.29571e-42
-2.49744e-42
-7.06582e-42
-2.08436e-41
-1.09015e-41
-1.23192e-40
-7.23605e-40
-5.08382e-36
3.65131e-36
-3.85367e-36
2.60375e-36
-1.6109e-36
1.99431e-36
-1.31522e-36
3.10654e-37
3.70025e-37
-2.71227e-36
7.68884e-37
-5.98346e-37
-7.04177e-38
1.70013e-36
-4.62483e-38
1.11273e-37
4.85281e-37
-9.61821e-37
9.47577e-37
-6.17369e-37
1.08554e-36
-1.68952e-37
9.93979e-37
-5.45089e-37
8.85614e-37
9.89225e-39
5.4398e-37
5.3194e-37
1.19321e-37
5.52093e-37
-4.20208e-38
1.55983e-37
-3.73118e-37
4.69604e-37
-3.82123e-37
1.60213e-39
-1.0972e-37
-4.55404e-37
-5.7284e-38
-7.10116e-38
-9.01654e-39
-1.24193e-38
-1.51957e-39
-1.41762e-39
-1.79914e-40
-1.67228e-40
-2.13509e-41
-1.62218e-41
-2.12171e-42
-1.56811e-42
-2.06568e-43
-1.3485e-43
-1.80233e-44
-1.13665e-44
-1.52747e-45
-8.84332e-46
-1.1992e-46
-6.6988e-47
-9.12065e-48
-4.77947e-48
-6.54686e-49
-3.31326e-49
-4.67795e-50
-2.2252e-50
-2.06721e-50
-6.80338e-51
-2.32322e-49
-7.83496e-50
-2.94446e-48
-1.10012e-48
-3.47057e-47
-1.46207e-47
-3.94285e-46
-1.88405e-46
-4.03995e-45
-2.25661e-45
-3.99567e-44
-2.62774e-44
-3.3568e-43
-2.75975e-43
-2.73753e-42
-2.83988e-42
-1.62948e-41
-2.47715e-41
-9.48089e-41
-2.14911e-40
-1.97779e-40
-1.32894e-39
-8.24631e-39
-1.40174e-34
7.32132e-35
-6.18748e-36
3.60865e-36
-4.6697e-36
-5.76906e-38
-8.7678e-37
-2.44473e-38
-1.06286e-37
-2.45585e-37
-1.94422e-38
-5.40077e-38
9.05781e-39
1.47493e-37
2.03464e-38
1.01526e-38
1.66605e-38
-8.4251e-38
2.84703e-38
-5.5107e-38
3.67468e-38
-1.66589e-38
2.44031e-38
-5.09979e-38
1.80759e-38
1.05952e-40
1.71425e-38
4.67045e-38
7.06921e-39
4.88429e-38
1.24887e-40
1.45462e-38
-5.63663e-39
4.11663e-38
-6.52446e-39
1.63258e-40
-6.17497e-39
-3.97759e-38
-5.26985e-39
-6.59207e-39
-8.89956e-40
-1.20872e-39
-1.59986e-40
-1.4396e-40
-1.95837e-41
-1.74747e-41
-2.39246e-42
-1.74047e-42
-2.42402e-43
-1.71242e-43
-2.39837e-44
-1.49757e-44
-2.11769e-45
-1.27715e-45
-1.81209e-46
-1.00495e-46
-1.43326e-47
-7.67522e-48
-1.09649e-48
-5.5199e-49
-7.97842e-50
-3.86175e-50
-1.61326e-50
-4.5373e-51
-1.48781e-49
-3.03191e-50
-1.96358e-48
-4.39825e-49
-2.50906e-47
-6.22425e-48
-2.98662e-46
-8.35089e-47
-3.43254e-45
-1.08757e-45
-3.57439e-44
-1.32287e-44
-3.60131e-43
-1.5666e-43
-3.1122e-42
-1.68883e-42
-2.61907e-41
-1.78625e-41
-1.65297e-40
-1.63185e-40
-1.02735e-39
-1.47705e-39
-2.80633e-39
-9.89626e-39
-6.38692e-38
-4.6639e-36
7.84003e-36
-3.78084e-36
7.00642e-36
-5.5344e-37
4.00641e-39
-1.04314e-37
-3.9142e-38
-1.49099e-38
-3.17307e-38
-4.39469e-39
-6.15095e-39
1.04797e-39
1.41559e-38
2.23167e-39
9.79965e-40
5.09032e-40
-8.17778e-39
5.53909e-40
-5.42405e-39
1.04193e-39
-1.83637e-39
-4.14823e-41
-6.0243e-39
-4.19646e-40
-1.58382e-40
3.74164e-40
4.50758e-39
4.22952e-40
4.76256e-39
1.33124e-40
1.44761e-39
3.73506e-40
4.00191e-39
3.01893e-40
1.74879e-41
-3.53433e-40
-3.85689e-39
-4.03402e-40
-6.53123e-40
-7.18376e-41
-1.25568e-40
-1.33864e-41
-1.53726e-41
-1.68556e-42
-1.91755e-42
-2.09928e-43
-1.94589e-43
-2.16477e-44
-1.94507e-44
-2.16838e-45
-1.72131e-45
-1.93705e-46
-1.48203e-46
-1.67145e-47
-1.1749e-47
-1.33264e-48
-9.02576e-49
-1.0297e-49
-6.52598e-50
-1.38682e-50
-5.35453e-51
-9.40929e-50
-1.28115e-50
-1.3184e-48
-1.92198e-49
-1.75925e-47
-2.82766e-48
-2.27285e-46
-4.04395e-47
-2.73802e-45
-5.48667e-46
-3.19739e-44
-7.24568e-45
-3.38935e-43
-8.94515e-44
-3.50117e-42
-1.08018e-42
-3.11725e-41
-1.18888e-41
-2.74316e-40
-1.29535e-40
-1.84514e-39
-1.22116e-39
-1.27074e-38
-1.16454e-38
-4.51744e-38
-8.23961e-38
-6.01229e-37
-8.93967e-38
2.14124e-34
-3.91462e-37
8.71849e-36
-6.46952e-38
5.66181e-37
-1.58739e-38
2.81444e-38
-2.35444e-39
-7.82856e-40
-6.0615e-40
-3.86483e-40
8.08805e-41
1.11957e-39
2.04526e-40
7.96599e-41
1.64583e-41
-6.45755e-40
-3.79878e-42
-4.34473e-40
2.99022e-41
-1.59771e-40
-7.5884e-41
-5.227e-40
-1.04052e-40
-2.20549e-41
-3.18737e-42
3.55044e-40
3.01869e-41
3.78207e-40
1.54082e-41
1.18384e-40
5.85219e-41
3.16237e-40
5.2499e-41
1.51156e-42
-2.46741e-41
-3.04009e-40
-3.3101e-41
-5.32545e-41
-6.04806e-42
-1.05474e-41
-1.15886e-42
-1.32574e-42
-1.48537e-43
-1.6851e-43
-1.87945e-44
-1.74016e-44
-1.96128e-45
-1.76078e-45
-1.98374e-46
-1.57642e-46
-1.78593e-47
-1.36854e-47
-1.55045e-48
-1.09355e-48
-1.24368e-49
-8.44961e-50
-1.18143e-50
-6.20241e-51
-3.45863e-50
-1.49233e-51
-4.95893e-49
-1.69783e-50
-7.03414e-48
-2.62278e-49
-9.47899e-47
-3.90929e-48
-1.23813e-45
-5.62832e-47
-1.51579e-44
-7.76362e-46
-1.80179e-43
-1.03081e-44
-1.96369e-42
-1.30163e-43
-2.09103e-41
-1.57537e-42
-1.96222e-40
-1.79405e-41
-1.82999e-39
-1.94781e-40
-1.38705e-38
-1.95324e-39
-1.09177e-37
-1.84246e-38
-5.69093e-37
-1.51127e-37
-1.0669e-36
-1.18628e-36
-6.49336e-35
8.43422e-37
2.79158e-36
8.37138e-38
7.1263e-37
7.00185e-39
8.12565e-38
1.09457e-40
1.08908e-38
-8.90519e-41
1.07913e-39
-4.2524e-42
2.10609e-40
1.3625e-41
1.73712e-41
5.47247e-43
-5.21751e-41
-1.12634e-42
-3.6118e-41
1.08633e-42
-1.45424e-41
-7.27582e-42
-4.96556e-41
-9.27125e-42
-2.97948e-42
-1.0532e-42
2.90116e-41
2.05303e-42
3.12119e-41
1.23035e-42
9.91139e-42
4.83253e-42
2.60517e-41
4.38847e-42
1.31981e-43
-1.66483e-42
-2.50011e-41
-2.38149e-42
-4.44794e-42
-4.46286e-43
-9.04039e-43
-8.70924e-44
-1.15556e-43
-1.13559e-44
-1.49204e-44
-1.45418e-45
-1.5592e-45
-1.53521e-46
-1.59309e-46
-1.56549e-47
-1.43753e-47
-1.42058e-48
-1.25558e-48
-1.24078e-49
-1.00837e-49
-1.09127e-50
-7.82725e-51
-1.53798e-50
-6.92652e-52
-2.24963e-49
-2.11643e-51
-3.31961e-48
-3.43222e-50
-4.75888e-47
-5.43565e-49
-6.48231e-46
-8.42938e-48
-8.58231e-45
-1.24067e-46
-1.06522e-43
-1.79544e-45
-1.28976e-42
-2.43016e-44
-1.43159e-41
-3.26431e-43
-1.5665e-40
-4.00825e-42
-1.50814e-39
-4.9904e-41
-1.47195e-38
-5.48979e-40
-1.1583e-37
-6.43652e-39
-1.00053e-36
-6.30711e-38
-5.50142e-36
-7.01728e-37
-5.27813e-36
-6.20897e-36
2.69993e-36
-2.98347e-36
-8.7185e-37
-4.65057e-37
4.32933e-37
-9.39642e-38
6.3021e-38
-1.1849e-38
9.62267e-39
-1.61718e-39
9.94979e-40
-1.72889e-40
1.13995e-40
-1.77071e-41
1.02294e-41
-1.72583e-42
-2.95386e-42
-2.30669e-43
-2.57553e-42
6.92325e-44
-1.13579e-42
-6.08546e-43
-3.92935e-42
-7.58144e-43
-2.84413e-43
-1.04237e-43
2.08656e-42
1.46042e-43
2.26393e-42
9.34475e-44
7.32698e-43
3.69375e-43
1.88432e-42
3.36422e-43
1.00976e-44
-1.19028e-43
-1.8052e-42
-1.74494e-43
-3.28261e-43
-3.31521e-44
-6.79164e-44
-6.56404e-45
-8.82915e-45
-8.65476e-46
-1.15364e-45
-1.11873e-46
-1.21967e-46
-1.19034e-47
-1.25626e-47
-1.22118e-48
-1.14259e-48
-1.11392e-49
-1.00351e-49
-9.79981e-51
-8.1028e-51
-1.41952e-51
-6.33222e-52
-1.02468e-50
-9.0466e-53
-1.58705e-49
-7.7194e-52
-2.39693e-48
-1.31219e-50
-3.47201e-47
-2.12727e-49
-4.86804e-46
-3.41249e-48
-6.49091e-45
-5.13449e-47
-8.3725e-44
-7.7209e-46
-1.01342e-42
-1.07216e-44
-1.18864e-41
-1.52843e-43
-1.27828e-40
-2.01754e-42
-1.34009e-39
-2.99342e-41
-1.22686e-38
-4.46728e-40
-1.10315e-37
-8.12078e-39
-7.46286e-37
-1.4069e-37
-4.80162e-36
-2.34021e-36
-2.86583e-35
-1.55792e-34
-3.1898e-36
-6.64754e-36
-8.34047e-37
-5.14454e-36
-5.34671e-37
-9.5864e-37
-6.73406e-38
-1.06099e-37
-9.68718e-39
-1.37374e-38
-9.88745e-40
-1.38404e-39
-1.05538e-40
-1.45457e-40
-9.5888e-42
-1.32168e-41
-1.16104e-42
-1.20345e-42
-2.67941e-43
-9.22696e-44
-9.64692e-44
-5.123e-44
-3.21103e-43
-5.41732e-44
-2.7143e-44
-7.90487e-45
1.50939e-43
9.55739e-45
1.65372e-43
6.35475e-45
5.411e-44
2.49288e-44
1.37506e-43
2.26996e-44
7.65078e-46
-7.83387e-45
-1.31575e-43
-1.16285e-44
-2.42123e-44
-2.24465e-45
-5.0843e-45
-4.4925e-46
-6.68348e-46
-5.99111e-47
-8.81579e-47
-7.80343e-48
-9.39463e-48
-8.36846e-49
-9.7354e-49
-8.63099e-50
-8.90145e-50
-7.92563e-51
-7.84781e-51
-8.82664e-52
-6.34173e-52
-3.19407e-51
-2.09678e-53
-5.141e-50
4.93328e-52
-8.10717e-49
8.33831e-51
-1.24497e-47
1.36289e-49
-1.82737e-46
2.14275e-48
-2.61434e-45
3.28137e-47
-3.53694e-44
4.7962e-46
-4.6808e-43
6.83195e-45
-5.75771e-42
9.1521e-44
-6.99114e-41
1.18795e-42
-7.65407e-40
1.37376e-41
-8.44085e-39
1.39369e-40
-7.8792e-38
6.44785e-40
-7.70144e-37
-1.5248e-38
-5.29003e-36
-6.81815e-37
-4.07149e-35
-1.53347e-35
-2.50866e-34
-5.95765e-36
-3.4693e-36
-3.2796e-36
-2.68153e-36
-5.02782e-37
-7.04052e-37
-9.99751e-38
-8.11215e-38
-1.24566e-38
-1.11238e-38
-1.68241e-39
-1.12684e-39
-1.79536e-40
-1.20538e-40
-1.94052e-41
-1.0971e-41
-1.82294e-42
-1.02449e-42
-1.68872e-43
-9.62985e-44
-1.36384e-44
-1.32625e-44
-4.22364e-45
-2.372e-44
-3.86082e-45
-2.22148e-45
-5.78837e-46
9.98664e-45
6.24107e-46
1.1041e-44
4.25649e-46
3.66156e-45
1.66224e-45
9.16598e-45
1.51292e-45
5.29322e-47
-5.17078e-46
-8.75999e-45
-7.72067e-46
-1.63698e-45
-1.50501e-46
-3.47496e-46
-3.03793e-47
-4.62061e-47
-4.08256e-48
-6.14095e-48
-5.3483e-49
-6.5963e-49
-5.76622e-50
-6.87131e-50
-5.96926e-51
-6.31654e-51
-5.47288e-52
-5.5879e-52
-1.34727e-53
-4.40308e-53
5.81053e-52
2.14888e-53
9.52645e-51
4.34735e-52
1.49343e-49
7.3055e-51
2.2763e-48
1.19542e-49
3.31672e-47
1.88132e-48
4.6998e-46
2.88491e-47
6.30036e-45
4.22141e-46
8.23146e-44
6.0234e-45
1.00067e-42
8.08079e-44
1.19304e-41
1.05192e-42
1.28576e-40
1.22147e-41
1.37825e-39
1.25469e-40
1.25788e-38
6.24576e-40
1.16775e-37
-1.2239e-38
7.72448e-37
-5.81418e-37
5.23036e-36
-1.33062e-35
-2.21994e-34
-5.24625e-37
-7.9582e-35
8.5835e-38
-3.95796e-36
-8.01857e-39
-3.13804e-37
-7.09779e-39
-2.16571e-38
-1.23841e-39
-1.85665e-39
-2.09914e-40
-1.63441e-40
-2.51088e-41
-1.6679e-41
-2.95799e-42
-1.54218e-42
-2.93346e-43
-1.45148e-43
-2.83508e-44
-1.30644e-44
-2.41905e-45
-1.47182e-45
-4.05939e-46
-1.7617e-45
-2.60655e-46
-1.79261e-46
-3.92942e-47
6.54248e-46
3.8e-47
7.30653e-46
2.65822e-47
2.44434e-46
1.03076e-46
6.06298e-46
9.37396e-47
3.59239e-48
-3.18184e-47
-5.78948e-46
-4.77804e-47
-1.09219e-46
-9.42021e-48
-2.33896e-47
-1.91425e-48
-3.13454e-48
-2.59295e-49
-4.19011e-49
-3.41329e-50
-4.52549e-50
-3.69985e-51
-4.73184e-51
-3.83053e-52
-4.36531e-52
-1.32187e-53
-3.87893e-53
3.842e-52
-4.60606e-54
6.51581e-51
-2.61256e-53
1.06762e-49
-4.49597e-52
1.68366e-48
-7.5511e-51
2.58544e-47
-1.23575e-49
3.79429e-46
-1.94496e-48
5.42766e-45
-2.98289e-47
7.34057e-44
-4.36508e-46
9.7119e-43
-6.22901e-45
1.19391e-41
-8.35572e-44
1.44894e-40
-1.08726e-42
1.58472e-39
-1.26e-41
1.74606e-38
-1.28525e-40
1.62715e-37
-6.0473e-40
1.5881e-36
1.38161e-38
1.08802e-35
6.28879e-37
8.35498e-35
1.42936e-35
2.37489e-34
1.99367e-37
-4.81101e-36
-2.53827e-37
-2.42252e-36
-3.17897e-38
-1.7561e-37
-5.62904e-39
-1.01975e-38
-6.17941e-40
-6.1416e-40
-7.62781e-41
-4.06335e-41
-7.57466e-42
-3.51836e-42
-7.75269e-43
-3.07977e-43
-6.97034e-44
-2.84339e-44
-6.22801e-45
-2.45112e-45
-5.06469e-46
-2.29443e-46
-5.36192e-47
-1.27555e-46
-1.87592e-47
-1.35493e-47
-2.7181e-48
4.00647e-47
2.27276e-48
4.52153e-47
1.62957e-48
1.52816e-47
6.29743e-48
3.74918e-47
5.72385e-48
2.27918e-49
-1.93483e-48
-3.57696e-47
-2.91609e-48
-6.82584e-48
-5.79327e-49
-1.47148e-48
-1.18329e-49
-1.98805e-49
-1.6117e-50
-2.67013e-50
-2.12901e-51
-2.89973e-51
-2.31621e-52
-3.04178e-52
-2.40223e-53
-2.81669e-53
-6.6056e-55
-2.58848e-54
2.69428e-53
-1.78099e-54
4.53519e-52
-2.80972e-53
7.3717e-51
-4.87562e-52
1.15344e-49
-8.18442e-51
1.75388e-48
-1.33849e-49
2.54978e-47
-2.10529e-48
3.60201e-46
-3.22611e-47
4.8153e-45
-4.7173e-46
6.26542e-44
-6.7242e-45
7.5896e-43
-9.00925e-44
8.99535e-42
-1.16967e-42
9.64816e-41
-1.34988e-41
1.02453e-39
-1.35992e-40
9.28472e-39
-5.86803e-40
8.46512e-38
1.64083e-38
5.52783e-37
7.05676e-37
3.55187e-36
1.57692e-35
2.57167e-34
-1.51296e-38
-4.85614e-36
1.72006e-38
-2.52313e-36
1.99019e-39
-1.74852e-37
2.51135e-40
-9.33664e-39
1.8813e-41
-4.28323e-40
1.10743e-42
-1.8366e-41
1.14372e-44
-9.11955e-43
-8.11118e-45
-5.54894e-44
-1.43145e-45
-4.2518e-45
-1.82933e-46
-3.35844e-46
-1.86435e-47
-2.8519e-47
-2.55522e-48
-9.39247e-48
-1.09918e-48
-1.01475e-48
-1.65742e-49
2.40889e-48
1.29291e-49
2.75138e-48
9.47163e-50
9.36702e-49
3.64224e-49
2.28147e-48
3.30827e-49
1.41236e-50
-1.11338e-49
-2.17532e-48
-1.68506e-49
-4.18352e-49
-3.37641e-50
-9.06539e-50
-6.9245e-51
-1.23182e-50
-9.48508e-52
-1.66017e-51
-1.25664e-52
-1.8098e-52
-1.37551e-53
-1.90255e-53
-2.04268e-54
-1.7646e-54
-1.10476e-53
-1.39304e-55
-1.89879e-52
3.14214e-55
-3.19477e-51
5.84168e-54
-5.23586e-50
1.01801e-52
-8.25945e-49
1.71483e-51
-1.2688e-47
2.81621e-50
-1.86279e-46
4.44769e-49
-2.66606e-45
6.8515e-48
-3.6077e-44
1.00734e-46
-4.77662e-43
1.44866e-45
-5.87668e-42
1.9693e-44
-7.13945e-41
2.65173e-43
-7.81743e-40
3.38022e-42
-8.62649e-39
4.5338e-41
-8.05255e-38
6.17081e-40
-7.8763e-37
9.85729e-39
-5.40848e-36
1.58528e-37
-4.16478e-35
2.50337e-36
3.00767e-35
-2.25155e-37
-8.40234e-35
2.63264e-37
-4.12082e-36
3.13876e-38
-2.66423e-37
4.94613e-39
-1.30288e-38
4.89371e-40
-4.43182e-40
5.36712e-41
-6.37157e-42
4.7836e-42
8.27566e-43
4.40661e-43
1.10265e-43
3.59148e-44
1.06515e-44
2.92652e-45
8.66025e-46
2.19509e-46
6.78557e-47
1.6166e-47
4.51036e-48
1.07001e-48
2.98106e-49
6.72804e-50
1.62382e-49
1.22207e-50
1.60486e-49
5.7051e-51
5.46217e-50
2.0684e-50
1.31691e-49
1.87625e-50
8.30504e-52
-6.29414e-51
-1.25479e-49
-9.55474e-51
-2.43486e-50
-1.92626e-51
-5.29669e-51
-3.9622e-52
-7.23977e-52
-5.44928e-53
-9.78463e-53
-7.23378e-54
-1.0707e-53
-7.97185e-55
-1.12754e-54
-1.80737e-55
-1.03111e-55
-1.74892e-54
2.39757e-56
-3.01119e-53
6.10319e-55
-5.03697e-52
1.08776e-53
-8.1973e-51
1.88749e-52
-1.28427e-49
3.16667e-51
-1.95604e-48
5.17553e-50
-2.84841e-47
8.13629e-49
-4.03275e-46
1.24608e-47
-5.403e-45
1.82185e-46
-7.05171e-44
2.59886e-45
-8.56772e-43
3.49881e-44
-1.02004e-41
4.61824e-43
-1.09876e-40
5.65113e-42
-1.1751e-39
6.87196e-41
-1.07183e-38
7.5415e-40
-9.89827e-38
8.5181e-39
-6.53425e-37
8.28924e-38
-4.33941e-36
8.68882e-37
6.47756e-36
2.52032e-37
-3.26046e-36
-2.96156e-37
-2.29957e-36
-3.63619e-38
-1.46136e-37
-5.87091e-39
-6.52975e-39
-5.9731e-40
-8.14115e-41
-6.72835e-41
1.76167e-41
-6.17155e-42
3.07343e-42
-5.84334e-43
3.23993e-43
-4.90015e-44
3.17144e-44
-4.10311e-45
2.73576e-45
-3.16423e-46
2.29318e-46
-2.40062e-47
1.77695e-47
-1.71642e-48
1.33807e-48
-1.20043e-49
1.0322e-49
-7.55726e-51
1.55809e-50
-2.21338e-52
3.53724e-51
1.08945e-51
7.47697e-51
1.01573e-51
4.92905e-53
-3.40358e-52
-7.0948e-51
-5.18253e-52
-1.38572e-51
-1.05178e-52
-3.023e-52
-2.1684e-53
-4.1497e-53
-2.99447e-54
-5.61885e-54
-3.98115e-55
-6.16457e-55
-4.37179e-56
-6.49058e-56
-5.12677e-57
-4.42634e-57
-1.02431e-56
3.00661e-56
-1.66308e-55
5.61823e-55
-2.71665e-54
1.00107e-53
-4.28693e-53
1.73893e-52
-6.48972e-52
2.9206e-51
-9.44433e-51
4.77969e-50
-1.30726e-49
7.5239e-49
-1.72706e-48
1.15422e-47
-2.13991e-47
1.69028e-46
-2.49734e-46
2.4164e-45
-2.66107e-45
3.25988e-44
-2.58117e-44
4.31563e-43
-2.13042e-43
5.29591e-42
-1.35781e-42
6.46985e-41
-4.04201e-42
7.13608e-40
6.02764e-41
8.13305e-39
9.60161e-40
8.00265e-38
1.08548e-38
8.52197e-37
6.46027e-36
2.4282e-37
-3.34818e-36
-3.09441e-37
-3.92114e-37
-3.98108e-38
3.43889e-38
-7.09065e-39
8.65205e-39
-7.84378e-40
1.55652e-39
-9.68048e-41
1.7751e-40
-9.62173e-42
2.00071e-41
-9.829e-43
1.89758e-42
-8.82613e-44
1.77956e-43
-7.86993e-45
1.50538e-44
-6.42937e-46
1.24608e-45
-5.14231e-47
9.58983e-47
-3.85521e-48
7.18367e-48
-2.8142e-49
5.09321e-49
-1.94965e-50
3.55175e-50
-1.3002e-51
2.47367e-51
-2.54638e-53
5.50843e-52
4.86966e-53
1.1675e-53
-1.8344e-53
-3.83615e-52
-2.75377e-53
-7.55428e-53
-5.61401e-54
-1.65181e-53
-1.15896e-54
-2.27747e-54
-1.60502e-55
-3.08825e-55
-2.11131e-56
-3.39723e-56
2.24727e-57
-3.64329e-57
8.37862e-56
-1.47638e-57
1.49209e-54
-2.14313e-56
2.58106e-53
-3.91095e-55
4.31983e-52
-6.93547e-54
7.03596e-51
-1.19808e-52
1.10359e-49
-2.00105e-51
1.68344e-48
-3.25261e-50
2.45641e-47
-5.08567e-49
3.4867e-46
-7.7347e-48
4.68694e-45
-1.12304e-46
6.14215e-44
-1.58606e-45
7.5026e-43
-2.1097e-44
8.98948e-42
-2.71834e-43
9.76727e-41
-3.16289e-42
1.05484e-39
-3.35027e-41
9.75568e-39
-2.29986e-40
9.12924e-38
7.08047e-40
6.14696e-37
7.82631e-38
4.12336e-36
1.77875e-36
2.62341e-35
-5.42822e-37
1.79547e-36
6.83819e-40
-1.23213e-36
-2.40883e-38
5.64154e-37
-1.09451e-38
8.41444e-38
-1.74607e-39
1.29728e-38
-2.81561e-40
1.35424e-39
-3.29027e-41
1.46345e-40
-3.81254e-42
1.3344e-41
-3.7413e-43
1.22255e-42
-3.58739e-44
1.00967e-43
-3.09839e-45
8.22381e-45
-2.59808e-46
6.22559e-46
-2.02341e-47
4.60793e-47
-1.52692e-48
3.2251e-48
-1.08893e-49
2.19971e-49
-7.52498e-51
1.43455e-50
-4.93797e-52
9.31134e-52
-2.90578e-53
5.57078e-53
-2.87991e-54
-1.70455e-53
-1.52491e-54
-3.83573e-54
-2.95415e-55
-8.70446e-55
-6.00305e-56
-1.21288e-55
-8.22613e-57
-1.65072e-56
4.69583e-58
-1.84233e-57
2.95691e-56
-6.24353e-58
5.46558e-55
-8.37253e-57
9.76778e-54
-1.57181e-55
1.7019e-52
-2.88546e-54
2.86838e-51
-5.14054e-53
4.71023e-50
-8.92812e-52
7.44489e-49
-1.4992e-50
1.14647e-47
-2.45279e-49
1.68723e-46
-3.85954e-48
2.42233e-45
-5.91759e-47
3.28765e-44
-8.65889e-46
4.37074e-43
-1.23596e-44
5.39767e-42
-1.66122e-43
6.59449e-41
-2.17675e-42
7.25652e-40
-2.58737e-41
8.07329e-39
-2.87763e-40
7.58707e-38
-2.27446e-39
7.51811e-37
-3.03816e-39
5.21286e-36
5.14235e-37
4.11554e-35
1.38693e-35
2.47905e-34
-6.4754e-36
-8.05475e-35
-4.71527e-36
1.41956e-36
-7.01289e-37
6.81032e-37
-1.35701e-37
8.36163e-38
-1.65464e-38
1.18424e-38
-2.19657e-39
1.20253e-39
-2.31562e-40
1.28585e-40
-2.4793e-41
1.16555e-41
-2.31177e-42
1.06514e-42
-2.12865e-43
8.77408e-44
-1.78582e-44
7.13586e-45
-1.46274e-45
5.39264e-46
-1.1191e-46
3.98673e-47
-8.32387e-48
2.78663e-48
-5.86974e-49
1.89858e-49
-4.01983e-50
1.23627e-50
-2.63478e-51
7.84907e-52
-1.67665e-52
4.78414e-53
-1.03402e-53
1.80396e-54
-6.84616e-55
-4.33499e-56
-4.99621e-56
-3.61325e-56
-4.99911e-57
-5.78645e-57
-6.71504e-58
-8.26994e-58
-2.87108e-57
-9.86077e-59
-5.28843e-56
-1.25192e-58
-9.708e-55
-2.23466e-57
-1.73015e-53
-4.21049e-56
-3.00488e-52
-7.74613e-55
-5.04805e-51
-1.38297e-53
-8.25732e-50
-2.40792e-52
-1.3001e-48
-4.05326e-51
-1.99246e-47
-6.65089e-50
-2.91851e-46
-1.04953e-48
-4.16444e-45
-1.61512e-47
-5.6193e-44
-2.37241e-46
-7.4104e-43
-3.40775e-45
-9.0841e-42
-4.62861e-44
-1.09751e-40
-6.2288e-43
-1.19604e-39
-7.95454e-42
-1.30897e-38
-1.07345e-40
-1.21386e-37
-1.48523e-39
-1.17097e-36
-2.42485e-38
-7.96029e-36
-4.0023e-37
-5.95171e-35
-6.44151e-36
-7.9521e-35
-1.858e-34
1.82368e-34
-9.09938e-36
8.46574e-36
-6.30879e-36
-2.45811e-38
-1.17194e-36
-5.039e-38
-1.29499e-37
-1.0556e-38
-1.67249e-38
-1.16675e-39
-1.68252e-39
-1.2855e-40
-1.76636e-40
-1.17434e-41
-1.60282e-41
-1.07508e-42
-1.45448e-42
-8.85566e-44
-1.19861e-43
-7.19835e-45
-9.7079e-45
-5.43682e-46
-7.33296e-46
-4.01717e-47
-5.40565e-47
-2.80656e-48
-3.77514e-48
-1.9113e-49
-2.56648e-49
-1.24403e-50
-1.66942e-50
-7.88428e-52
-1.05662e-51
-4.81034e-53
-6.44174e-53
-2.9102e-54
-3.82648e-54
-1.74664e-55
-2.20275e-55
-1.14766e-56
-1.24505e-56
-8.16578e-58
-1.00791e-57
-6.77538e-59
-6.22749e-57
2.8642e-59
-1.16613e-55
6.87341e-58
-2.14357e-54
1.32998e-56
-3.82506e-53
2.50236e-55
-6.65292e-52
4.59414e-54
-1.11927e-50
8.18525e-53
-1.83401e-49
1.42174e-51
-2.8925e-48
2.38756e-50
-4.44221e-47
3.90654e-49
-6.51995e-46
6.14747e-48
-9.32801e-45
9.42586e-47
-1.26176e-43
1.379e-45
-1.6697e-42
1.96681e-44
-2.05307e-41
2.63527e-43
-2.49237e-40
3.41712e-42
-2.72682e-39
3.91559e-41
-3.00578e-38
3.8346e-40
-2.80247e-37
1.20732e-39
-2.73701e-36
-6.29192e-38
-1.87644e-35
-2.43366e-36
-1.44227e-34
-5.35856e-35
-8.70735e-34
-6.7854e-36
9.87294e-35
-4.35107e-36
8.87082e-36
-6.55949e-37
-5.09229e-38
-1.28438e-37
-5.778e-38
-1.58109e-38
-1.19008e-38
-2.11486e-39
-1.31971e-39
-2.24159e-40
-1.4568e-40
-2.41035e-41
-1.33598e-41
-2.25484e-42
-1.22593e-42
-2.0818e-43
-1.01273e-43
-1.7503e-44
-8.24779e-45
-1.43626e-45
-6.24269e-46
-1.10053e-46
-4.61975e-47
-8.19653e-48
-3.23284e-48
-5.78653e-49
-2.20441e-49
-3.96682e-50
-1.4367e-50
-2.60248e-51
-9.11571e-52
-1.65866e-52
-5.56735e-53
-1.01828e-53
-3.31367e-54
-6.08083e-55
-1.90995e-55
-3.51532e-56
-1.0791e-56
-1.97716e-57
-5.96688e-58
-2.37795e-60
-3.21517e-59
2.05556e-57
1.45414e-59
3.88416e-56
3.2393e-58
7.14085e-55
6.26585e-57
1.27441e-53
1.17911e-55
2.21699e-52
2.16514e-54
3.73056e-51
3.85821e-53
6.11436e-50
6.70276e-52
9.64598e-49
1.1258e-50
1.48193e-47
1.84239e-49
2.17593e-46
2.8997e-48
3.11466e-45
4.44674e-47
4.21538e-44
6.50521e-46
5.58225e-43
9.27292e-45
6.86931e-42
1.23914e-43
8.34759e-41
1.59211e-42
9.14312e-40
1.76332e-41
1.00931e-38
1.50156e-40
9.42567e-38
-4.24726e-40
9.2233e-37
-5.75648e-38
6.33675e-36
-1.81187e-36
4.88045e-35
-3.8198e-35
-6.05289e-34
-8.75583e-37
1.07133e-35
3.92254e-37
5.59364e-36
2.54681e-38
3.16547e-37
-2.95867e-39
9.50337e-39
-9.30967e-40
-8.00399e-40
-1.90663e-40
-1.51441e-40
-2.463e-41
-1.93048e-41
-3.03994e-42
-1.88694e-42
-3.10153e-43
-1.78447e-43
-3.05986e-44
-1.51206e-44
-2.69755e-45
-1.25167e-45
-2.29887e-46
-9.62962e-47
-1.81319e-47
-7.2108e-48
-1.38265e-48
-5.1063e-49
-9.94562e-50
-3.51386e-50
-6.92399e-51
-2.31099e-51
-4.59967e-52
-1.47704e-52
-2.96196e-53
-9.08568e-54
-1.83372e-54
-5.43711e-55
-1.10241e-55
-3.14782e-56
-6.40464e-57
-1.77757e-57
-3.46119e-58
-9.77379e-59
2.98384e-58
-6.91091e-60
6.1598e-57
-3.36403e-59
1.16085e-55
-6.60537e-58
2.13415e-54
-1.27743e-56
3.80877e-53
-2.40423e-55
6.6257e-52
-4.41558e-54
1.1149e-50
-7.87003e-53
1.82725e-49
-1.36759e-51
2.88254e-48
-2.29763e-50
4.42827e-47
-3.76142e-49
6.50162e-46
-5.92238e-48
9.30572e-45
-9.08767e-47
1.2593e-43
-1.33088e-45
1.66743e-42
-1.90233e-44
2.05155e-41
-2.56291e-43
2.49261e-40
-3.37866e-42
2.72949e-39
-4.08496e-41
3.0124e-38
-4.77998e-40
2.81224e-37
-4.58006e-39
2.75141e-36
-3.42546e-38
1.88965e-35
1.02249e-37
1.45607e-34
8.17212e-36
1.88765e-34
-7.58758e-38
9.98223e-35
6.68659e-38
5.20044e-36
8.18844e-39
3.52724e-37
6.14787e-40
1.81699e-38
2.23012e-42
7.12247e-40
-9.32462e-42
1.7147e-41
-1.66618e-42
-7.1711e-43
-2.41107e-43
-1.53698e-43
-2.68738e-44
-1.8276e-44
-2.81268e-45
-1.72658e-45
-2.58813e-46
-1.53747e-46
-2.27637e-47
-1.24637e-47
-1.84191e-48
-9.72946e-49
-1.43272e-49
-7.12078e-50
-1.04821e-50
-5.03557e-51
-7.39781e-52
-3.38689e-52
-4.97381e-53
-2.20591e-53
-3.23477e-54
-1.37856e-54
-2.02042e-55
-8.35997e-56
-1.22367e-56
-4.89362e-57
-7.15986e-58
-2.78608e-58
-4.63544e-59
-1.54121e-59
-1.14628e-58
-1.41593e-60
-2.17559e-57
-1.19615e-59
-4.09903e-56
-2.35965e-58
-7.53585e-55
-4.56337e-57
-1.34493e-53
-8.58858e-56
-2.3397e-52
-1.57735e-54
-3.93719e-51
-2.81134e-53
-6.45333e-50
-4.88528e-52
-1.01814e-48
-8.20756e-51
-1.56432e-47
-1.34365e-49
-2.29714e-46
-2.11564e-48
-3.2886e-45
-3.24662e-47
-4.45153e-44
-4.75597e-46
-5.89622e-43
-6.80463e-45
-7.25759e-42
-9.19816e-44
-8.82231e-41
-1.2256e-42
-9.66715e-40
-1.53358e-41
-1.06769e-38
-1.97459e-40
-9.97764e-38
-2.48886e-39
-9.77046e-37
-3.59531e-38
-6.71919e-36
-5.22789e-37
-5.17885e-35
-7.84122e-36
-9.15857e-35
-2.2576e-37
1.1003e-35
2.61987e-37
3.61214e-36
3.01061e-38
2.70819e-37
4.63821e-39
1.57752e-38
4.44864e-40
8.89227e-40
4.74513e-41
5.05052e-41
4.08971e-42
3.50133e-42
3.64634e-43
2.54195e-43
2.86374e-44
2.00403e-44
2.24841e-45
1.49758e-45
1.61854e-46
1.11691e-46
1.14641e-47
7.84438e-48
7.6084e-49
5.40211e-49
4.93206e-50
3.54151e-50
3.03417e-51
2.26703e-51
1.81698e-52
1.39341e-52
1.04067e-53
8.3538e-54
5.79214e-55
4.83725e-55
3.09782e-56
2.73235e-56
1.60816e-57
1.49683e-57
7.9633e-59
8.0038e-59
-1.21067e-59
4.245e-60
-3.17077e-58
1.92671e-60
-6.14284e-57
3.48319e-59
-1.15772e-55
6.89411e-58
-2.12894e-54
1.33323e-56
-3.80041e-53
2.50913e-55
-6.61302e-52
4.60791e-54
-1.11307e-50
8.21219e-53
-1.82483e-49
1.4269e-51
-2.87959e-48
2.39702e-50
-4.42539e-47
3.92358e-49
-6.49957e-46
6.17663e-48
-9.30692e-45
9.47509e-47
-1.25995e-43
1.38681e-45
-1.66922e-42
1.97913e-44
-2.05465e-41
2.6531e-43
-2.49822e-40
3.44258e-42
-2.73704e-39
3.94585e-41
-3.02404e-38
3.86275e-40
-2.82489e-37
1.1916e-39
-2.76919e-36
-6.44928e-38
-1.90381e-35
-2.48934e-36
-1.47401e-34
-5.49496e-35
-8.9735e-34
6.67778e-37
1.24739e-35
-7.85917e-37
8.40586e-36
-9.75314e-38
5.71095e-37
-1.56419e-38
3.0092e-38
-1.58664e-39
1.37389e-39
-1.7709e-40
6.17424e-41
-1.61234e-41
3.6497e-42
-1.51189e-42
2.77583e-43
-1.25681e-43
2.54814e-44
-1.04237e-44
2.23388e-45
-7.96631e-46
1.9328e-46
-5.98746e-47
1.54456e-47
-4.23561e-48
1.1945e-48
-2.92851e-49
8.68191e-50
-1.93012e-50
6.10579e-51
-1.24041e-51
4.08817e-52
-7.66103e-53
2.65258e-53
-4.61149e-54
1.65236e-54
-2.68241e-55
9.99195e-56
-1.52129e-56
5.83387e-57
-8.36458e-58
3.31223e-58
-3.39425e-59
1.82548e-59
2.15567e-58
1.48239e-60
4.21928e-57
1.02967e-59
7.95224e-56
2.02706e-58
1.46234e-54
3.91696e-57
2.61041e-53
7.36587e-56
4.54215e-52
1.35154e-54
7.64468e-51
2.40662e-53
1.25322e-49
4.17753e-52
1.97738e-48
7.01096e-51
3.03845e-47
1.14629e-49
4.46181e-46
1.80254e-48
6.38763e-45
2.76129e-47
8.64509e-44
4.03565e-46
1.14496e-42
5.74577e-45
1.40876e-41
7.67209e-44
1.71208e-40
9.85262e-43
1.87457e-39
1.09466e-41
2.06974e-38
9.48828e-41
1.93162e-37
-1.78321e-40
1.89211e-36
-3.28836e-38
1.2993e-35
-1.04583e-36
1.00604e-34
-2.19466e-35
-3.43688e-34
8.16944e-37
2.98058e-34
-9.84879e-37
1.43764e-35
-1.20392e-37
9.86947e-37
-1.98801e-38
5.53658e-38
-2.05947e-39
3.20408e-39
-2.38245e-40
2.11502e-40
-2.23792e-41
1.87383e-41
-2.17434e-42
1.69549e-42
-1.86757e-43
1.60434e-43
-1.60175e-44
1.3868e-44
-1.26356e-45
1.17322e-45
-9.7996e-47
9.20014e-47
-7.14352e-48
7.00371e-48
-5.08582e-49
5.02933e-49
-3.44774e-50
3.50289e-50
-2.27715e-51
2.32789e-51
-1.44404e-52
1.50152e-52
-8.91748e-54
9.31089e-54
-5.31712e-55
5.61079e-55
-3.08873e-56
3.26748e-56
-1.73876e-57
1.85177e-57
-8.31825e-59
1.01748e-58
2.39112e-58
4.33377e-60
4.72527e-57
-2.24504e-59
8.90041e-56
-4.49894e-58