/*--------------------------------*- C++ -*----------------------------------*\
| =========                 |                                                 |
| \\      /  F ield         | OpenFOAM: The Open Source CFD Toolbox           |
|  \\    /   O peration     | Version:  2.4.0                                 |
|   \\  /    A nd           | Web:      www.OpenFOAM.org                      |
|    \\/     M anipulation  |                                                 |
\*---------------------------------------------------------------------------*/
FoamFile
{
    version     2.0;
    format      ascii;
    class       volVectorField;
    location    "0.55";
    object      U;
}
// * * * * * * * * * * * * * * * * * * * * * * * * * * * * * * * * * * * * * //

dimensions      [0 1 -1 0 0 0 0];

internalField   nonuniform List<vector> 
1915
(
(-1.28281e-32 1.23149e-32 0)
(-1.82006e-33 1.25364e-33 0)
(-1.91329e-34 1.36751e-34 0)
(-2.1172e-35 1.23935e-35 0)
(-1.98057e-36 1.14318e-36 0)
(-1.85897e-37 9.4252e-38 0)
(-1.56715e-38 7.70949e-39 0)
(-1.29974e-39 5.83479e-40 0)
(-9.99371e-41 4.33083e-41 0)
(-7.49918e-42 3.03217e-42 0)
(-5.31296e-43 2.07202e-43 0)
(-3.66279e-44 1.35138e-44 0)
(-2.41087e-45 8.58838e-46 0)
(-1.50652e-46 5.25994e-47 0)
(5.34517e-47 4.59161e-48 0)
(1.03886e-45 1.91712e-47 0)
(1.65037e-44 2.3732e-46 0)
(2.54518e-43 2.73696e-45 0)
(3.75082e-42 3.04567e-44 0)
(5.37336e-41 3.01693e-43 0)
(7.28438e-40 2.89938e-42 0)
(9.62731e-39 2.29865e-41 0)
(1.18534e-37 1.80202e-40 0)
(1.43322e-36 9.4632e-40 0)
(1.57209e-35 5.23035e-39 0)
(-3.20032e-31 6.98058e-35 0)
(-3.05186e-30 2.05203e-35 0)
(-1.42266e-29 1.43698e-35 0)
(-1.5118e-28 2.29846e-36 0)
(-4.99849e-29 4.14139e-37 0)
(1.41156e-28 6.91486e-38 0)
(7.8368e-30 -2.52942e-38 0)
(-4.59184e-29 -5.72282e-36 0)
(1.41407e-30 -1.87173e-34 0)
(5.45554e-29 -3.98009e-33 0)
(5.99034e-29 -6.333e-32 0)
(6.0891e-29 -6.91679e-31 0)
(6.00177e-29 -6.333e-32 0)
(5.54991e-29 -3.9801e-33 0)
(5.52772e-30 -1.87186e-34 0)
(1.20888e-31 -5.7236e-36 0)
(-4.39318e-30 -1.94152e-38 0)
(-4.98657e-29 1.84643e-38 0)
(-4.51247e-30 6.12079e-39 0)
(-9.97474e-31 6.90584e-40 0)
(-1.04846e-31 8.61708e-41 0)
(-1.44235e-32 8.02965e-42 0)
(-1.43194e-33 7.90076e-43 0)
(-1.54985e-34 6.69682e-44 0)
(-1.40364e-35 5.7874e-45 0)
(-1.29611e-36 4.54266e-46 0)
(-1.0701e-37 3.55356e-47 0)
(-8.76457e-39 2.59255e-48 0)
(-6.64107e-40 1.86255e-49 0)
(-4.93414e-41 1.26721e-50 0)
(-3.45758e-42 7.61594e-52 0)
(-2.36445e-43 -1.33987e-51 0)
(-1.5431e-44 -2.28845e-50 0)
(-9.80836e-46 -3.65627e-49 0)
(-5.27131e-47 -5.74003e-48 0)
(1.2662e-46 -8.7523e-47 0)
(2.19623e-45 -1.31526e-45 0)
(3.52226e-44 -1.91374e-44 0)
(5.35084e-43 -2.75141e-43 0)
(7.77961e-42 -3.80683e-42 0)
(1.06611e-40 -5.21285e-41 0)
(1.40582e-39 -6.79602e-40 0)
(1.72557e-38 -8.77833e-39 0)
(2.05317e-37 -1.06106e-37 0)
(2.2212e-36 -1.27526e-36 0)
(-3.88207e-32 3.26835e-32 0)
(-3.3102e-31 2.5078e-31 0)
(-1.4763e-30 1.94523e-30 0)
(-1.09357e-29 3.9274e-31 0)
(-3.60889e-30 -3.7901e-30 0)
(9.89021e-30 -7.96605e-31 0)
(8.06195e-31 2.40343e-30 0)
(-3.16792e-30 1.31688e-31 0)
(1.59038e-31 -1.32678e-30 0)
(4.08605e-30 -8.09164e-31 0)
(4.65066e-30 -1.68312e-31 0)
(4.74814e-30 -6.92885e-31 0)
(4.64628e-30 2.97345e-32 0)
(4.18487e-30 7.25287e-31 0)
(5.78673e-31 7.40291e-31 0)
(1.48468e-32 1.75203e-31 0)
(-4.54017e-31 6.47431e-31 0)
(-3.59424e-30 1.40415e-33 0)
(-4.68666e-31 -6.33561e-31 0)
(-1.07918e-31 -8.07314e-32 0)
(-1.28281e-32 -1.23149e-32 0)
(-1.82006e-33 -1.25364e-33 0)
(-1.91329e-34 -1.36751e-34 0)
(-2.1172e-35 -1.23935e-35 0)
(-1.98057e-36 -1.14318e-36 0)
(-1.85897e-37 -9.4252e-38 0)
(-1.56715e-38 -7.70949e-39 0)
(-1.29974e-39 -5.83479e-40 0)
(-9.99371e-41 -4.33083e-41 0)
(-7.49918e-42 -3.03217e-42 0)
(-5.31296e-43 -2.07202e-43 0)
(-3.6628e-44 -1.35138e-44 0)
(-2.41127e-45 -8.58968e-46 0)
(-1.57004e-46 -5.4458e-47 0)
(-4.33829e-47 -3.03759e-47 0)
(-4.1606e-46 -3.57137e-46 0)
(-4.66131e-45 -4.51753e-45 0)
(-4.9712e-44 -5.31265e-44 0)
(-4.57427e-43 -6.04938e-43 0)
(-3.87681e-42 -6.2314e-42 0)
(-2.23669e-41 -6.27914e-41 0)
(-6.6494e-41 -5.47692e-40 0)
(1.45726e-39 -4.84456e-39 0)
(2.81563e-38 -3.50957e-38 0)
(3.88262e-37 -2.9246e-37 0)
(-6.62801e-33 1.05002e-32 0)
(-4.10993e-32 3.20491e-32 0)
(-9.12901e-32 2.02373e-31 0)
(-5.19394e-31 3.6326e-32 0)
(-1.77678e-31 -3.90621e-31 0)
(4.5133e-31 -8.51288e-32 0)
(4.02494e-32 2.45257e-31 0)
(-1.27325e-31 1.57746e-32 0)
(1.91514e-32 -1.37859e-31 0)
(2.07715e-31 -8.68037e-32 0)
(2.52964e-31 -2.02045e-32 0)
(2.55916e-31 -5.73733e-32 0)
(2.36535e-31 3.98382e-33 0)
(2.16612e-31 7.64227e-32 0)
(4.02238e-32 7.84085e-32 0)
(1.97916e-33 2.13198e-32 0)
(-2.58042e-32 6.71063e-32 0)
(-1.75687e-31 1.88967e-34 0)
(-2.77649e-32 -6.53425e-32 0)
(-1.22899e-32 -9.78769e-33 0)
(-1.68499e-33 -1.55412e-33 0)
(-2.7728e-34 -1.68236e-34 0)
(-3.11162e-35 -1.8788e-35 0)
(-3.64938e-36 -1.76011e-36 0)
(-3.53101e-37 -1.65083e-37 0)
(-3.41082e-38 -1.39019e-38 0)
(-2.9309e-39 -1.15169e-39 0)
(-2.46979e-40 -8.84709e-41 0)
(-1.92069e-41 -6.63333e-42 0)
(-1.45462e-42 -4.69631e-43 0)
(-1.03753e-43 -3.23577e-44 0)
(-7.19084e-45 -2.12901e-45 0)
(-4.77289e-46 -1.37672e-46 0)
(-6.02429e-47 -2.90424e-47 0)
(-3.89e-46 -2.87423e-46 0)
(-4.85876e-45 -3.76044e-45 0)
(-5.64325e-44 -4.76183e-44 0)
(-6.31873e-43 -5.58589e-43 0)
(-6.32948e-42 -6.33664e-42 0)
(-6.13214e-41 -6.44327e-41 0)
(-4.95244e-40 -6.36829e-40 0)
(-3.91343e-39 -5.27103e-39 0)
(-2.12537e-38 -4.30163e-38 0)
(-1.15988e-37 -2.45062e-37 0)
(-9.57553e-38 -1.42386e-36 0)
(-3.62771e-32 3.99116e-32 0)
(-6.2468e-32 1.75225e-32 0)
(-1.23834e-32 3.80167e-32 0)
(-1.89058e-32 6.16786e-33 0)
(-6.64036e-33 -5.38711e-32 0)
(1.38275e-32 -1.18693e-32 0)
(1.10683e-33 3.37894e-32 0)
(-2.47458e-33 2.20177e-33 0)
(1.57628e-33 -1.91016e-32 0)
(7.84951e-33 -1.2242e-32 0)
(1.05556e-32 -3.32296e-33 0)
(1.05293e-32 -1.07822e-32 0)
(8.77714e-33 2.08188e-34 0)
(8.42448e-33 1.05616e-32 0)
(2.14147e-33 1.09554e-32 0)
(1.7615e-34 3.08109e-33 0)
(-9.92336e-34 9.32577e-33 0)
(-6.25489e-33 3.13984e-35 0)
(-1.16723e-33 -9.04644e-33 0)
(-9.63916e-34 -1.40321e-33 0)
(-1.48734e-34 -2.44425e-34 0)
(-2.63979e-35 -2.77911e-35 0)
(-3.11736e-36 -3.26971e-36 0)
(-3.77185e-37 -3.16363e-37 0)
(-3.75211e-38 -3.05293e-38 0)
(-3.68969e-39 -2.62092e-39 0)
(-3.22569e-40 -2.20656e-40 0)
(-2.75046e-41 -1.71472e-41 0)
(-2.16399e-42 -1.29778e-42 0)
(-1.65268e-43 -9.25155e-44 0)
(-1.18857e-44 -6.4089e-45 0)
(-8.30478e-46 -4.24095e-46 0)
(-7.81392e-47 -3.91264e-47 0)
(-3.23382e-46 -1.7411e-46 0)
(-4.18909e-45 -2.40633e-45 0)
(-5.30023e-44 -3.17303e-44 0)
(-6.21099e-43 -4.04764e-43 0)
(-7.03726e-42 -4.79539e-42 0)
(-7.14323e-41 -5.50254e-41 0)
(-7.04662e-40 -5.68608e-40 0)
(-5.81538e-39 -5.71994e-39 0)
(-4.73568e-38 -4.86239e-38 0)
(-2.69143e-37 -4.0679e-37 0)
(-1.57237e-36 -2.41343e-36 0)
(-2.26917e-36 -1.41916e-35 0)
(-6.35807e-31 3.98422e-31 0)
(-7.45661e-31 3.86666e-32 0)
(-7.54289e-32 5.02047e-33 0)
(-1.52725e-32 5.36077e-34 0)
(-1.75754e-33 -4.65965e-33 0)
(-3.06901e-34 -1.04298e-33 0)
(-7.07323e-35 2.89947e-33 0)
(2.46666e-34 1.99509e-34 0)
(1.48529e-34 -1.65453e-33 0)
(1.75074e-34 -1.08081e-33 0)
(3.77916e-34 -3.23028e-34 0)
(3.3583e-34 -9.80819e-34 0)
(1.3816e-34 5.2871e-36 0)
(2.12936e-34 9.17689e-34 0)
(1.2003e-34 9.5879e-34 0)
(1.72781e-35 2.85024e-34 0)
(-1.48523e-35 8.08309e-34 0)
(-9.46301e-35 3.17569e-36 0)
(-3.20971e-35 -7.81191e-34 0)
(-8.78417e-35 -1.29223e-34 0)
(-1.45167e-35 -2.35839e-35 0)
(-2.76928e-36 -2.80122e-36 0)
(-3.38193e-37 -3.39062e-37 0)
(-4.21893e-38 -3.37045e-38 0)
(-4.28029e-39 -3.31047e-39 0)
(-4.27974e-40 -2.89145e-40 0)
(-3.78716e-41 -2.4633e-41 0)
(-3.26117e-42 -1.93672e-42 0)
(-2.58525e-43 -1.47821e-43 0)
(-1.98617e-44 -1.06256e-44 0)
(-1.43588e-45 -7.41118e-46 0)
(-1.13802e-46 -5.61035e-47 0)
(-1.99548e-46 -1.07691e-46 0)
(-2.69029e-45 -1.51668e-45 0)
(-3.54491e-44 -2.13344e-44 0)
(-4.51895e-43 -2.83784e-43 0)
(-5.34914e-42 -3.66101e-42 0)
(-6.13225e-41 -4.39023e-41 0)
(-6.32945e-40 -5.12041e-40 0)
(-6.36202e-39 -5.38695e-39 0)
(-5.40874e-38 -5.55649e-38 0)
(-4.54625e-37 -4.85945e-37 0)
(-2.75601e-36 -4.231e-36 0)
(-1.71986e-35 -2.62652e-35 0)
(-3.73099e-35 -1.63764e-34 0)
(-2.60913e-32 4.62443e-31 0)
(-6.44976e-32 3.92081e-32 0)
(-8.93921e-33 -6.26543e-33 0)
(-1.81048e-33 -1.06365e-33 0)
(-2.15653e-34 -6.40077e-34 0)
(-7.39485e-35 -1.22512e-34 0)
(-1.14114e-35 2.83427e-34 0)
(3.17666e-35 1.95842e-35 0)
(1.15799e-35 -1.63609e-34 0)
(-1.69282e-36 -1.08403e-34 0)
(1.24516e-35 -3.64722e-35 0)
(7.78617e-36 -1.19718e-34 0)
(-8.5919e-36 -3.00064e-36 0)
(4.40955e-37 9.01959e-35 0)
(6.82657e-36 9.52426e-35 0)
(1.38858e-36 2.88839e-35 0)
(1.19714e-36 8.00613e-35 0)
(6.0576e-36 3.47417e-37 0)
(-1.93808e-37 -7.71746e-35 0)
(-6.67106e-36 -1.30346e-35 0)
(-1.16437e-36 -2.50028e-36 0)
(-2.30965e-37 -3.05449e-37 0)
(-2.90436e-38 -3.80431e-38 0)
(-3.69569e-39 -3.85492e-39 0)
(-3.81817e-40 -3.84936e-40 0)
(-3.86555e-41 -3.40313e-41 0)
(-3.46178e-42 -2.92797e-42 0)
(-3.00626e-43 -2.3196e-43 0)
(-2.40271e-44 -1.78104e-44 0)
(-1.85738e-45 -1.28632e-45 0)
(-1.42649e-46 -9.22488e-47 0)
(-1.2672e-46 -4.18116e-47 0)
(-1.70088e-45 -5.46596e-46 0)
(-2.39069e-44 -7.97477e-45 0)
(-3.17798e-43 -1.12985e-43 0)
(-4.09685e-42 -1.51834e-42 0)
(-4.90849e-41 -1.98087e-41 0)
(-5.71957e-40 -2.41573e-40 0)
(-6.0113e-39 -2.86869e-39 0)
(-6.19934e-38 -3.10581e-38 0)
(-5.43481e-37 -3.29909e-37 0)
(-4.78466e-36 -3.03559e-36 0)
(-3.10543e-35 -2.76438e-35 0)
(-2.15767e-34 -1.87296e-34 0)
(-6.61674e-34 -1.21453e-33 0)
(4.88347e-33 1.19199e-30 0)
(-6.61985e-33 1.11991e-31 0)
(-9.83677e-34 6.35189e-33 0)
(-2.72924e-34 2.18963e-34 0)
(-3.54002e-35 -4.46731e-35 0)
(-1.03311e-35 -1.02253e-35 0)
(-1.44237e-36 2.20575e-35 0)
(3.01335e-36 1.56352e-36 0)
(9.59248e-37 -1.28676e-35 0)
(-6.39573e-37 -8.64814e-36 0)
(5.65788e-37 -3.15672e-36 0)
(1.50147e-38 -1.02867e-35 0)
(-1.48894e-36 -4.17243e-37 0)
(-5.32106e-37 7.07776e-36 0)
(4.70197e-37 7.53368e-36 0)
(1.16135e-37 2.35556e-36 0)
(1.83145e-37 6.30009e-36 0)
(9.53549e-37 2.99738e-38 0)
(6.61597e-38 -6.05729e-36 0)
(-5.45414e-37 -1.05984e-36 0)
(-9.75194e-38 -2.09467e-37 0)
(-1.99544e-38 -2.62929e-38 0)
(-2.5546e-39 -3.33758e-39 0)
(-3.30493e-40 -3.44322e-40 0)
(-3.45606e-41 -3.48113e-41 0)
(-3.53409e-42 -3.11457e-42 0)
(-3.19012e-43 -2.70243e-43 0)
(-2.78756e-44 -2.15849e-44 0)
(-2.23935e-45 -1.66725e-45 0)
(-1.76287e-46 -1.21988e-46 0)
(-5.3186e-47 -2.33021e-47 0)
(-6.18597e-46 -2.34661e-46 0)
(-9.01333e-45 -3.60105e-45 0)
(-1.27613e-43 -5.30463e-44 0)
(-1.71353e-42 -7.597e-43 0)
(-2.23351e-41 -1.03219e-41 0)
(-2.72082e-40 -1.36553e-40 0)
(-3.22761e-39 -1.68879e-39 0)
(-3.49139e-38 -2.04416e-38 0)
(-3.71235e-37 -2.25504e-37 0)
(-3.44007e-36 -2.46547e-36 0)
(-3.21046e-35 -2.33171e-35 0)
(-2.37308e-34 -2.23665e-34 0)
(-1.88329e-33 -1.59081e-33 0)
(-9.17043e-33 -1.176e-32 0)
(-3.79301e-32 7.94303e-31 0)
(1.48885e-32 7.61546e-32 0)
(1.49358e-33 5.86632e-33 0)
(1.32424e-34 3.88393e-34 0)
(3.57513e-36 2.7779e-35 0)
(-1.44911e-36 1.88498e-36 0)
(-2.80582e-37 2.10291e-36 0)
(1.97986e-37 1.55548e-37 0)
(6.66579e-38 -1.06781e-36 0)
(-5.60285e-38 -7.27792e-37 0)
(3.41512e-38 -2.91139e-37 0)
(-1.30511e-38 -9.93226e-37 0)
(-1.2827e-37 -5.87011e-38 0)
(-5.18091e-38 5.84099e-37 0)
(3.13525e-38 6.28043e-37 0)
(8.52436e-39 1.9917e-37 0)
(1.53732e-38 5.24316e-37 0)
(7.84909e-38 2.64569e-39 0)
(6.74812e-39 -5.03231e-37 0)
(-3.90849e-38 -8.93921e-38 0)
(-7.17178e-39 -1.81462e-38 0)
(-1.4966e-39 -2.31666e-39 0)
(-1.95028e-40 -2.98866e-40 0)
(-2.55419e-41 -3.1205e-41 0)
(-2.70319e-42 -3.18642e-42 0)
(-2.78708e-43 -2.87355e-43 0)
(-2.53636e-44 -2.50881e-44 0)
(-2.22895e-45 -2.014e-45 0)
(-1.81066e-46 -1.56176e-46 0)
(-3.08947e-47 -1.18606e-47 0)
(-2.67832e-46 -8.90251e-48 0)
(-4.10172e-45 -1.31732e-46 0)
(-6.03764e-44 -2.05891e-45 0)
(-8.63959e-43 -3.13162e-44 0)
(-1.17269e-41 -4.54893e-43 0)
(-1.54971e-40 -6.432e-42 0)
(-1.91405e-39 -8.58949e-41 0)
(-2.31375e-38 -1.12012e-39 0)
(-2.54925e-37 -1.3555e-38 0)
(-2.78775e-36 -1.61654e-37 0)
(-2.65054e-35 -1.73792e-36 0)
(-2.59397e-34 -1.88339e-35 0)
(-1.99041e-33 -1.73939e-34 0)
(-1.74433e-32 -1.67051e-33 0)
(-8.9413e-32 -1.12636e-32 0)
(-7.00598e-32 -3.03689e-31 0)
(-5.05394e-32 -1.59123e-32 0)
(-7.40966e-33 9.51227e-33 0)
(-1.62333e-33 1.36513e-33 0)
(-2.01778e-34 2.07246e-34 0)
(-2.83705e-35 2.14027e-35 0)
(-3.04054e-36 2.44205e-36 0)
(-3.17562e-37 2.19324e-37 0)
(-2.63697e-38 -5.81283e-38 0)
(-7.15175e-39 -5.16349e-38 0)
(2.67137e-39 -2.2687e-38 0)
(-1.32664e-39 -7.83425e-38 0)
(-1.04934e-38 -5.59624e-39 0)
(-4.23233e-39 4.1973e-38 0)
(2.2077e-39 4.55104e-38 0)
(6.28927e-40 1.4718e-38 0)
(1.18614e-39 3.78817e-38 0)
(5.98838e-39 2.02466e-40 0)
(5.46078e-40 -3.62942e-38 0)
(-2.858e-39 -6.59448e-39 0)
(-5.31277e-40 -1.36294e-39 0)
(-1.12649e-40 -1.77044e-40 0)
(-1.4847e-41 -2.31172e-41 0)
(-1.96348e-42 -2.44264e-42 0)
(-2.09473e-43 -2.5148e-43 0)
(-2.17314e-44 -2.28637e-44 0)
(-1.98818e-45 -2.0075e-45 0)
(-1.75435e-46 -1.62059e-46 0)
(-1.49105e-47 -1.27363e-47 0)
(-1.26614e-47 -3.0868e-48 0)
(-1.86367e-46 -3.67702e-47 0)
(-2.89622e-45 -6.08943e-46 0)
(-4.36602e-44 -9.67124e-45 0)
(-6.30722e-43 -1.5059e-43 0)
(-8.82466e-42 -2.22247e-42 0)
(-1.17251e-40 -3.23136e-41 0)
(-1.50897e-39 -4.38534e-40 0)
(-1.81752e-38 -5.92428e-39 0)
(-2.12699e-37 -7.29432e-38 0)
(-2.27015e-36 -9.15277e-37 0)
(-2.37589e-35 -1.01091e-35 0)
(-2.14538e-34 -1.20066e-34 0)
(-1.92816e-33 -1.18714e-33 0)
(-1.25673e-32 -1.34728e-32 0)
(-8.06965e-32 -1.02639e-31 0)
(-7.1255e-31 -2.11324e-32 0)
(-8.24257e-31 -2.90227e-33 0)
(-8.31226e-32 -1.69558e-34 0)
(-1.68018e-32 -5.13045e-36 0)
(-1.81828e-33 4.11754e-37 0)
(-2.42534e-34 6.90218e-38 0)
(-2.42924e-35 1.7968e-38 0)
(-2.59038e-36 1.42681e-39 0)
(-2.34892e-37 -5.61612e-39 0)
(-2.18225e-38 -3.94509e-39 0)
(-1.55251e-39 -1.82339e-39 0)
(-2.39682e-40 -6.45303e-39 0)
(-7.55378e-40 -5.41407e-40 0)
(-2.9685e-40 3.05506e-39 0)
(1.4331e-40 3.34533e-39 0)
(4.23266e-41 1.09364e-39 0)
(8.11041e-41 2.78191e-39 0)
(4.03097e-40 1.5441e-41 0)
(3.78059e-41 -2.66212e-39 0)
(-1.89966e-40 -4.89395e-40 0)
(-3.58996e-41 -1.02695e-40 0)
(-7.69913e-42 -1.34895e-41 0)
(-1.02683e-42 -1.77843e-42 0)
(-1.3685e-43 -1.89419e-43 0)
(-1.47192e-44 -1.96221e-44 0)
(-1.53519e-45 -1.79347e-45 0)
(-1.41241e-46 -1.58082e-46 0)
(-1.27017e-47 -1.27996e-47 0)
(-4.44264e-48 -9.2867e-49 0)
(-5.75971e-47 1.13454e-48 0)
(-9.40959e-46 2.01117e-47 0)
(-1.48059e-44 3.25772e-46 0)
(-2.27009e-43 5.08059e-45 0)
(-3.32237e-42 7.69486e-44 0)
(-4.74569e-41 1.11445e-42 0)
(-6.39537e-40 1.56518e-41 0)
(-8.45216e-39 2.07161e-40 0)
(-1.03382e-37 2.62591e-39 0)
(-1.25453e-36 2.94045e-38 0)
(-1.36123e-35 2.69295e-37 0)
(-1.50338e-34 4.68667e-37 0)
(-1.38007e-33 -5.51803e-35 0)
(-1.35787e-32 -1.84896e-33 0)
(-8.91716e-32 -3.7029e-32 0)
(-7.01651e-31 -5.15809e-31 0)
(-6.0053e-32 -4.77036e-32 0)
(-5.56647e-32 -1.50965e-32 0)
(-8.03629e-33 -1.13686e-32 0)
(-1.72944e-33 -1.44808e-33 0)
(-2.12414e-34 -2.09461e-34 0)
(-2.95354e-35 -2.14062e-35 0)
(-3.14264e-36 -2.29548e-36 0)
(-3.4455e-37 -2.08353e-37 0)
(-3.23649e-38 -1.94391e-38 0)
(-3.04275e-39 -1.8371e-39 0)
(-2.37308e-40 -2.5842e-40 0)
(-2.75947e-41 -4.76394e-40 0)
(-5.44428e-41 -4.4341e-41 0)
(-2.05475e-41 2.02209e-40 0)
(9.30454e-42 2.23417e-40 0)
(2.81774e-42 7.40523e-41 0)
(5.4498e-42 1.85481e-40 0)
(2.68364e-41 1.06939e-42 0)
(2.54967e-42 -1.77275e-40 0)
(-1.25931e-41 -3.31079e-41 0)
(-2.40309e-42 -7.02413e-42 0)
(-5.20146e-43 -9.33525e-43 0)
(-6.99228e-44 -1.24022e-43 0)
(-9.37436e-45 -1.33171e-44 0)
(-1.01385e-45 -1.38689e-45 0)
(-1.06146e-46 -1.27463e-46 0)
(-9.79766e-48 -1.12741e-47 0)
(-8.32521e-49 -8.85856e-49 0)
(5.70835e-49 4.76186e-49 0)
(1.07152e-47 9.5115e-48 0)
(1.74321e-46 1.59829e-46 0)
(2.72643e-45 2.61535e-45 0)
(4.14871e-44 4.11599e-44 0)
(6.02733e-43 6.31172e-43 0)
(8.52588e-42 9.23578e-42 0)
(1.13848e-40 1.31782e-40 0)
(1.48498e-39 1.76786e-39 0)
(1.79514e-38 2.30101e-38 0)
(2.13778e-37 2.67054e-37 0)
(2.28361e-36 2.73829e-36 0)
(2.44867e-35 1.34458e-35 0)
(2.19836e-34 -2.73873e-34 0)
(2.04834e-33 -1.28646e-32 0)
(1.29552e-32 -2.93894e-31 0)
(8.86362e-32 -4.89789e-30 0)
(-1.18955e-32 -4.41647e-31 0)
(1.7055e-33 -4.27709e-32 0)
(-3.82969e-35 -3.82482e-33 0)
(-1.17451e-34 -3.02523e-34 0)
(-2.04123e-35 -3.0591e-35 0)
(-3.6418e-36 -2.91116e-36 0)
(-4.35433e-37 -3.05737e-37 0)
(-5.22642e-38 -2.84017e-38 0)
(-5.18995e-39 -2.66945e-39 0)
(-5.07831e-40 -2.41027e-40 0)
(-4.2838e-41 -2.77858e-41 0)
(-4.14808e-42 -3.54839e-41 0)
(-3.73664e-42 -3.59858e-42 0)
(-1.32616e-42 1.33031e-41 0)
(5.62932e-43 1.48479e-41 0)
(1.75158e-43 4.96421e-42 0)
(3.4116e-43 1.23214e-41 0)
(1.66093e-42 7.28933e-44 0)
(1.59807e-43 -1.17662e-41 0)
(-7.77827e-43 -2.21819e-42 0)
(-1.5023e-43 -4.74841e-43 0)
(-3.27427e-44 -6.36043e-44 0)
(-4.43845e-45 -8.49989e-45 0)
(-5.97944e-46 -9.17714e-46 0)
(-6.50335e-47 -9.59367e-47 0)
(-6.83014e-48 -8.84849e-48 0)
(-6.10037e-49 -7.84584e-49 0)
(3.53286e-49 -6.43287e-50 0)
(7.10917e-48 -1.2456e-50 0)
(1.1945e-46 -1.29902e-49 0)
(1.95424e-45 -2.17645e-48 0)
(3.07482e-44 -3.56353e-47 0)
(4.71432e-43 -5.61023e-46 0)
(6.89837e-42 -8.60782e-45 0)
(9.85251e-41 -1.25957e-43 0)
(1.32726e-39 -1.79672e-42 0)
(1.75365e-38 -2.40281e-41 0)
(2.14361e-37 -3.09617e-40 0)
(2.59997e-36 -3.45938e-39 0)
(2.81806e-35 -3.06564e-38 0)
(3.10963e-34 3.25632e-38 0)
(2.84952e-33 9.75396e-36 0)
(2.79967e-32 3.17614e-34 0)
(1.83333e-31 6.74466e-33 0)
(1.43949e-30 1.07259e-31 0)
(8.28378e-33 -4.4677e-31 0)
(-4.4114e-33 -4.26419e-32 0)
(-5.18784e-34 -2.94708e-33 0)
(-9.86807e-35 -1.64838e-34 0)
(-1.06542e-35 -9.47562e-36 0)
(-1.34827e-36 -6.15905e-37 0)
(-1.33309e-37 -5.41959e-38 0)
(-1.38164e-38 -4.8785e-39 0)
(-1.24198e-39 -4.62856e-40 0)
(-1.11895e-40 -4.09022e-41 0)
(-9.074e-42 -3.97615e-42 0)
(-7.63358e-43 -2.53364e-42 0)
(-2.78109e-43 -2.69873e-43 0)
(-8.62579e-44 8.15557e-43 0)
(3.34631e-44 9.19626e-43 0)
(1.06816e-44 3.10677e-43 0)
(2.09702e-44 7.6253e-43 0)
(1.01347e-43 4.63064e-45 0)
(9.82931e-45 -7.27529e-43 0)
(-4.74104e-44 -1.38771e-43 0)
(-9.22991e-45 -2.99064e-44 0)
(-2.02259e-45 -4.03917e-45 0)
(-2.75764e-46 -5.42384e-46 0)
(-3.72822e-47 -5.88891e-47 0)
(-4.07045e-48 -6.17661e-48 0)
(-4.28425e-49 -5.71872e-49 0)
(-3.81695e-50 -5.24906e-50 0)
(2.53392e-50 -3.50702e-50 0)
(4.97981e-49 -5.51336e-49 0)
(8.3109e-48 -9.57242e-48 0)
(1.34872e-46 -1.60777e-46 0)
(2.10549e-45 -2.63112e-45 0)
(3.19609e-44 -4.14113e-44 0)
(4.63294e-43 -6.35101e-43 0)
(6.53304e-42 -9.2939e-42 0)
(8.69965e-41 -1.32626e-40 0)
(1.12996e-39 -1.77914e-39 0)
(1.36116e-38 -2.31534e-38 0)
(1.61109e-37 -2.68448e-37 0)
(1.71289e-36 -2.74292e-36 0)
(1.81869e-35 -1.30827e-35 0)
(1.62154e-34 2.88397e-34 0)
(1.48206e-33 1.32536e-32 0)
(9.25485e-33 3.01711e-31 0)
(5.97345e-32 5.01776e-30 0)
(-5.93841e-34 -7.15343e-32 0)
(2.99972e-34 -9.6362e-33 0)
(3.41227e-35 -8.42586e-34 0)
(4.53364e-36 -5.52239e-35 0)
(3.44258e-37 -3.77797e-36 0)
(2.11549e-38 -2.60968e-37 0)
(3.55116e-40 -2.17304e-38 0)
(-1.32967e-40 -1.76765e-39 0)
(-2.45792e-41 -1.50748e-40 0)
(-3.22446e-42 -1.1993e-41 0)
(-3.28726e-43 -9.75243e-43 0)
(-3.33937e-44 -2.19004e-43 0)
(-1.62374e-44 -2.25217e-44 0)
(-5.11238e-45 4.90412e-44 0)
(1.89311e-45 5.61224e-44 0)
(6.18167e-46 1.91005e-44 0)
(1.22154e-45 4.65449e-44 0)
(5.85292e-45 2.87845e-46 0)
(5.72868e-46 -4.43809e-44 0)
(-2.73542e-45 -8.53095e-45 0)
(-5.37539e-46 -1.8482e-45 0)
(-1.18274e-46 -2.51053e-46 0)
(-1.62236e-47 -3.383e-47 0)
(-2.19969e-48 -3.6871e-48 0)
(-2.41129e-49 -3.87568e-49 0)
(-2.60426e-50 -3.597e-50 0)
(-1.36332e-50 -3.36892e-51 0)
(-2.00948e-49 -3.36371e-51 0)
(-3.48715e-48 -5.50021e-50 0)
(-5.85662e-47 -9.49174e-49 0)
(-9.58416e-46 -1.58434e-47 0)
(-1.50842e-44 -2.57338e-46 0)
(-2.31359e-43 -4.02086e-45 0)
(-3.3868e-42 -6.10945e-44 0)
(-4.83971e-41 -8.86054e-43 0)
(-6.5234e-40 -1.24829e-41 0)
(-8.62548e-39 -1.65059e-40 0)
(-1.0552e-37 -2.08806e-39 0)
(-1.2812e-36 -2.28565e-38 0)
(-1.39029e-35 -1.91792e-37 0)
(-1.53653e-34 4.19419e-37 0)
(-1.41042e-33 6.56947e-35 0)
(-1.3888e-32 1.97489e-33 0)
(-9.1163e-32 3.85897e-32 0)
(-7.17778e-31 5.3192e-31 0)
(-8.96462e-33 -4.71292e-31 0)
(4.59135e-33 -4.4813e-32 0)
(5.2213e-34 -2.93072e-33 0)
(8.75229e-35 -1.46261e-34 0)
(8.54777e-36 -5.46526e-36 0)
(9.57477e-37 -1.35372e-37 0)
(8.49993e-38 2.05042e-39 0)
(7.91442e-39 5.7019e-40 0)
(6.44714e-40 5.89939e-41 0)
(5.28737e-41 4.74546e-42 0)
(3.96929e-42 3.59802e-43 0)
(2.94326e-43 1.63146e-44 0)
(1.9673e-44 6.23321e-46 0)
(1.11025e-45 2.94277e-45 0)
(1.96559e-46 3.25246e-45 0)
(4.08084e-47 1.11353e-45 0)
(7.00039e-47 2.68931e-45 0)
(3.3175e-46 1.69427e-47 0)
(3.26817e-47 -2.56262e-45 0)
(-1.54935e-46 -4.97087e-46 0)
(-3.06503e-47 -1.08117e-46 0)
(-6.76409e-48 -1.47746e-47 0)
(-9.31847e-49 -1.9966e-48 0)
(-1.26588e-49 -2.18451e-49 0)
(-1.39164e-50 -2.30037e-50 0)
(-1.56763e-51 -2.1102e-51 0)
(-1.94289e-51 3.62726e-52 0)
(-3.2027e-50 1.01445e-50 0)
(-5.52848e-49 1.81066e-49 0)
(-9.23065e-48 3.14605e-48 0)
(-1.49989e-46 5.28496e-47 0)
(-2.34451e-45 8.65076e-46 0)
(-3.56484e-44 1.3619e-44 0)
(-5.1761e-43 2.0895e-43 0)
(-7.31536e-42 3.0599e-42 0)
(-9.76293e-41 4.37451e-41 0)
(-1.27205e-39 5.90034e-40 0)
(-1.53694e-38 7.8105e-39 0)
(-1.82758e-37 9.58017e-38 0)
(-1.9514e-36 1.17019e-36 0)
(-2.0873e-35 1.28972e-35 0)
(-1.87313e-34 1.47026e-34 0)
(-1.73527e-33 1.44615e-33 0)
(-1.09565e-32 1.54331e-32 0)
(-7.33296e-32 1.17137e-31 0)
(1.0045e-32 -4.65874e-31 0)
(-5.14971e-33 -4.41145e-32 0)
(-6.02643e-34 -2.8187e-33 0)
(-1.03629e-34 -1.34902e-34 0)
(-1.04043e-35 -4.09863e-36 0)
(-1.19747e-36 -2.12685e-39 0)
(-1.094e-37 1.58085e-38 0)
(-1.0472e-38 1.80933e-39 0)
(-8.77789e-40 1.70865e-40 0)
(-7.39855e-41 1.39434e-41 0)
(-5.71088e-42 1.10453e-42 0)
(-4.35136e-43 8.10191e-44 0)
(-3.11463e-44 5.80983e-45 0)
(-2.19237e-45 5.61433e-46 0)
(-1.39274e-46 2.10835e-46 0)
(-7.51341e-48 6.52039e-47 0)
(3.21428e-48 1.52591e-46 0)
(1.79466e-47 9.79656e-49 0)
(1.78238e-48 -1.45236e-46 0)
(-8.39329e-48 -2.83558e-47 0)
(-1.67294e-48 -6.18525e-48 0)
(-3.6998e-49 -8.48859e-49 0)
(-5.11975e-50 -1.1493e-49 0)
(-6.96527e-51 -1.26075e-50 0)
(-7.6748e-52 -1.32863e-51 0)
(-8.16689e-53 -1.14936e-52 0)
(-1.79104e-53 1.5467e-52 0)
(-1.81045e-52 3.02623e-51 0)
(-3.04921e-51 5.36737e-50 0)
(-4.97174e-50 9.27159e-49 0)
(-7.8295e-49 1.54874e-47 0)
(-1.18223e-47 2.51806e-46 0)
(-1.71619e-46 3.93914e-45 0)
(-2.36751e-45 5.99546e-44 0)
(-3.11779e-44 8.71649e-43 0)
(-3.84466e-43 1.23384e-41 0)
(-4.46622e-42 1.6501e-40 0)
(-4.72208e-41 2.15568e-39 0)
(-4.5413e-40 2.61498e-38 0)
(-3.68387e-39 3.12784e-37 0)
(-2.26894e-38 3.37738e-36 0)
(-5.58202e-38 3.6795e-35 0)
(1.22659e-36 3.42667e-34 0)
(1.7423e-35 3.31744e-33 0)
(1.93414e-34 2.26493e-32 0)
(1.00777e-32 -4.25168e-32 0)
(-5.36133e-33 -5.51035e-33 0)
(-6.49061e-34 -3.34931e-34 0)
(-1.242e-34 -6.01058e-36 0)
(-1.35244e-35 2.34177e-36 0)
(-1.71091e-36 3.82296e-37 0)
(-1.69368e-37 5.05161e-38 0)
(-1.75182e-38 5.18245e-39 0)
(-1.57303e-39 5.13532e-40 0)
(-1.41302e-40 4.50944e-41 0)
(-1.1559e-41 3.84417e-42 0)
(-9.29042e-43 3.02448e-43 0)
(-6.97698e-44 2.30657e-44 0)
(-5.11135e-45 1.66606e-45 0)
(-3.54785e-46 1.25401e-46 0)
(-2.39032e-47 1.11297e-47 0)
(-1.35115e-48 8.76264e-48 0)
(8.56556e-49 8.40354e-50 0)
(8.92978e-50 -7.87049e-48 0)
(-4.456e-49 -1.54816e-48 0)
(-8.92763e-50 -3.38409e-49 0)
(-1.97668e-50 -4.66488e-50 0)
(-2.74413e-51 -6.32519e-51 0)
(-3.73375e-52 -6.95608e-52 0)
(-3.67122e-53 -7.20409e-53 0)
(8.03617e-53 1.94153e-53 0)
(1.54705e-51 4.94158e-52 0)
(2.74344e-50 9.09793e-51 0)
(4.73894e-49 1.62358e-49 0)
(7.91668e-48 2.82545e-48 0)
(1.28745e-46 4.75393e-47 0)
(2.0148e-45 7.79654e-46 0)
(3.06832e-44 1.22975e-44 0)
(4.46434e-43 1.89126e-43 0)
(6.32592e-42 2.77598e-42 0)
(8.47105e-41 3.98076e-41 0)
(1.1083e-39 5.38474e-40 0)
(1.34643e-38 7.15746e-39 0)
(1.61142e-37 8.81361e-38 0)
(1.73599e-36 1.08341e-36 0)
(1.87527e-35 1.20223e-35 0)
(1.70736e-34 1.38716e-34 0)
(1.60247e-33 1.38431e-33 0)
(1.0337e-32 1.5073e-32 0)
(6.97527e-32 1.16764e-31 0)
(-1.0841e-32 -2.9737e-32 0)
(2.97586e-34 -2.95147e-33 0)
(-2.84304e-34 1.07704e-33 0)
(-1.83573e-34 1.92722e-34 0)
(-2.90174e-35 3.1248e-35 0)
(-4.89721e-36 3.44838e-36 0)
(-5.71655e-37 3.81239e-37 0)
(-6.74268e-38 3.57673e-38 0)
(-6.62557e-39 3.32677e-39 0)
(-6.41292e-40 2.79768e-40 0)
(-5.55002e-41 2.30463e-41 0)
(-4.68102e-42 1.76704e-42 0)
(-3.65335e-43 1.31958e-43 0)
(-2.768e-44 9.3251e-45 0)
(-1.97796e-45 6.41067e-46 0)
(-1.37103e-46 4.22522e-47 0)
(-9.05785e-48 3.12458e-48 0)
(-5.33368e-49 1.67911e-49 0)
(-3.10326e-50 -4.07945e-49 0)
(-2.4905e-50 -8.2059e-50 0)
(-4.71393e-51 -1.80516e-50 0)
(-1.02403e-51 -2.49905e-51 0)
(-1.41965e-52 -3.39253e-52 0)
(-1.78139e-53 -3.75149e-53 0)
(2.69348e-53 -6.58131e-54 0)
(5.47397e-52 -5.12756e-53 0)
(1.00686e-50 -9.56646e-52 0)
(1.79655e-49 -1.75378e-50 0)
(3.12602e-48 -3.12026e-49 0)
(5.25876e-47 -5.41092e-48 0)
(8.62299e-46 -9.07221e-47 0)
(1.35982e-44 -1.48157e-45 0)
(2.09086e-43 -2.32724e-44 0)
(3.06808e-42 -3.56041e-43 0)
(4.39818e-41 -5.19949e-42 0)
(5.9459e-40 -7.40349e-41 0)
(7.89488e-39 -9.93747e-40 0)
(9.69462e-38 -1.30236e-38 0)
(1.18393e-36 -1.56391e-37 0)
(1.29107e-35 -1.8064e-36 0)
(1.439e-34 -1.69854e-35 0)
(1.32977e-33 -1.23437e-34 0)
(1.3273e-32 3.04613e-34 0)
(8.79785e-32 2.33125e-32 0)
(7.11399e-31 4.49369e-31 0)
(-4.54561e-32 -4.00944e-31 0)
(-8.03182e-32 -2.36379e-32 0)
(-1.12684e-32 1.10974e-32 0)
(-2.353e-33 1.62312e-33 0)
(-2.82779e-34 2.48706e-34 0)
(-3.86077e-35 2.57762e-35 0)
(-4.05724e-36 2.7769e-36 0)
(-4.40476e-37 2.52197e-37 0)
(-4.10883e-38 2.30559e-38 0)
(-3.81408e-39 1.89911e-39 0)
(-3.20478e-40 1.54424e-40 0)
(-2.63887e-41 1.16678e-41 0)
(-2.02267e-42 8.62435e-43 0)
(-1.5101e-43 6.02727e-44 0)
(-1.06683e-44 4.10591e-45 0)
(-7.32679e-46 2.67325e-46 0)
(-4.81082e-47 1.69693e-47 0)
(-3.0682e-48 1.03427e-48 0)
(-1.88427e-49 4.01019e-50 0)
(-1.2415e-50 -7.16275e-52 0)
(-8.82612e-52 -7.32672e-52 0)
(-8.78222e-53 -1.18352e-52 0)
(-9.27752e-54 -1.69734e-53 0)
(-3.76538e-54 -2.24271e-54 0)
(-5.20007e-53 -6.89224e-54 0)
(-9.75192e-52 -1.29404e-52 0)
(-1.7881e-50 -2.43533e-51 0)
(-3.18173e-49 -4.47305e-50 0)
(-5.51833e-48 -7.97305e-49 0)
(-9.2532e-47 -1.3856e-47 0)
(-1.51132e-45 -2.32806e-46 0)
(-2.37411e-44 -3.81155e-45 0)
(-3.63262e-43 -6.00167e-44 0)
(-5.30547e-42 -9.20977e-43 0)
(-7.55821e-41 -1.34864e-41 0)
(-1.01588e-39 -1.92687e-40 0)
(-1.33776e-38 -2.59118e-39 0)
(-1.63066e-37 -3.39508e-38 0)
(-1.96868e-36 -4.01964e-37 0)
(-2.12624e-35 -4.40354e-36 0)
(-2.32983e-34 -3.20976e-35 0)
(-2.12474e-33 5.78731e-35 0)
(-2.06194e-32 1.07926e-32 0)
(-1.33996e-31 2.75987e-31 0)
(-1.02203e-30 4.90043e-30 0)
(-8.15907e-31 5.56133e-31 0)
(-1.00771e-30 5.4272e-32 0)
(-1.01995e-31 3.59928e-33 0)
(-2.0543e-32 1.81328e-34 0)
(-2.21999e-33 6.85401e-36 0)
(-2.95319e-34 1.74382e-37 0)
(-2.95346e-35 -2.03184e-39 0)
(-3.14564e-36 -6.69984e-40 0)
(-2.85224e-37 -7.01817e-41 0)
(-2.60981e-38 -5.66298e-42 0)
(-2.1528e-39 -4.31589e-43 0)
(-1.75299e-40 -3.04639e-44 0)
(-1.32618e-41 -2.09715e-45 0)
(-9.81314e-43 -1.3725e-46 0)
(-6.8646e-44 -8.76241e-48 0)
(-4.68005e-45 -5.36762e-49 0)
(-3.04915e-46 -3.09904e-50 0)
(-1.93423e-47 -1.84646e-51 0)
(-1.18093e-48 -1.17234e-51 0)
(-7.02736e-50 -2.19217e-52 0)
(-4.04962e-51 -4.70697e-53 0)
(-2.28867e-52 -6.51934e-54 0)
(-1.29636e-53 -8.73177e-55 0)
(-6.61342e-54 1.14753e-55 0)
(-1.14345e-52 4.19059e-54 0)
(-2.15067e-51 8.11799e-53 0)
(-3.94846e-50 1.5267e-51 0)
(-7.03472e-49 2.80143e-50 0)
(-1.22188e-47 4.9886e-49 0)
(-2.05182e-46 8.65969e-48 0)
(-3.35709e-45 1.45337e-46 0)
(-5.28251e-44 2.37629e-45 0)
(-8.10003e-43 3.73677e-44 0)
(-1.18539e-41 5.72433e-43 0)
(-1.69328e-40 8.36675e-42 0)
(-2.28143e-39 1.19147e-40 0)
(-3.01498e-38 1.59233e-39 0)
(-3.68626e-37 2.0509e-38 0)
(-4.4724e-36 2.30305e-37 0)
(-4.84917e-35 2.08704e-36 0)
(-5.35333e-34 4.62532e-38 0)
(-4.90802e-33 -5.81157e-34 0)
(-4.82539e-32 -1.94296e-32 0)
(-3.16215e-31 -4.14995e-31 0)
(-2.48516e-30 -6.6165e-30 0)
(-5.77991e-32 1.48597e-30 0)
(-7.39965e-32 1.28419e-31 0)
(-1.0516e-32 -4.12975e-33 0)
(-2.22476e-33 -1.26875e-33 0)
(-2.69949e-34 -2.34653e-34 0)
(-3.7152e-35 -2.53529e-35 0)
(-3.92583e-36 -2.77208e-36 0)
(-4.28104e-37 -2.52754e-37 0)
(-4.00672e-38 -2.313e-38 0)
(-3.7295e-39 -1.90539e-39 0)
(-3.14059e-40 -1.54909e-40 0)
(-2.59081e-41 -1.17022e-41 0)
(-1.98891e-42 -8.6481e-43 0)
(-1.48688e-43 -6.04284e-44 0)
(-1.05164e-44 -4.11583e-45 0)
(-7.22978e-46 -2.67926e-46 0)
(-4.75139e-47 -1.69833e-47 0)
(-3.03507e-48 -1.03623e-48 0)
(-1.86619e-49 -6.163e-50 0)
(-1.11647e-50 -3.55004e-51 0)
(-6.46299e-52 -2.00595e-52 0)
(-3.64963e-53 -1.11024e-53 0)
(-1.90682e-54 -5.88953e-55 0)
(1.86063e-54 5.03343e-55 0)
(3.80654e-53 1.06423e-53 0)
(7.1637e-52 2.0583e-52 0)
(1.31536e-50 3.8734e-51 0)
(2.34381e-49 7.11273e-50 0)
(4.07176e-48 1.26752e-48 0)
(6.83884e-47 2.20215e-47 0)
(1.11923e-45 3.699e-46 0)
(1.76165e-44 6.05405e-45 0)
(2.70225e-43 9.5295e-44 0)
(3.95618e-42 1.46167e-42 0)
(5.65411e-41 2.13921e-41 0)
(7.62229e-40 3.05292e-40 0)
(1.00804e-38 4.0946e-39 0)
(1.23345e-37 5.32325e-38 0)
(1.49804e-36 6.1468e-37 0)
(1.6261e-35 6.18803e-36 0)
(1.79781e-34 2.60077e-35 0)
(1.651e-33 -7.76641e-34 0)
(1.62638e-32 -3.30888e-32 0)
(1.06817e-31 -7.41384e-31 0)
(8.41132e-31 -1.2174e-29 0)
(-2.40883e-32 6.28914e-31 0)
(7.08156e-33 6.30137e-32 0)
(5.3734e-34 3.03083e-33 0)
(-4.26634e-35 2.18498e-35 0)
(-1.4804e-35 -2.21666e-35 0)
(-3.27849e-36 -3.12643e-36 0)
(-4.2483e-37 -3.71705e-37 0)
(-5.35678e-38 -3.55507e-38 0)
(-5.47815e-39 -3.32559e-39 0)
(-5.46072e-40 -2.80073e-40 0)
(-4.82575e-41 -2.30785e-41 0)
(-4.13805e-42 -1.76953e-42 0)
(-3.27133e-43 -1.32135e-43 0)
(-2.50501e-44 -9.3364e-45 0)
(-1.80568e-45 -6.41297e-46 0)
(-1.26095e-46 -4.21144e-47 0)
(-8.39241e-48 -2.68841e-48 0)
(-5.41719e-49 -1.6521e-49 0)
(-3.35936e-50 -9.87916e-51 0)
(-2.0235e-51 -5.71645e-52 0)
(-1.17746e-52 -3.22752e-53 0)
(-6.65362e-54 -1.77411e-54 0)
(-6.91892e-56 -1.04882e-55 0)
(5.86482e-54 -1.89539e-55 0)
(1.13779e-52 -3.65183e-54 0)
(2.14098e-51 -7.06128e-53 0)
(3.93115e-50 -1.32887e-51 0)
(7.00481e-49 -2.44036e-50 0)
(1.21689e-47 -4.34916e-49 0)
(2.04382e-46 -7.55694e-48 0)
(3.34476e-45 -1.26952e-46 0)
(5.26439e-44 -2.07816e-45 0)