/*--------------------------------*- C++ -*----------------------------------*\
| =========                 |                                                 |
| \\      /  F ield         | OpenFOAM: The Open Source CFD Toolbox           |
|  \\    /   O peration     | Version:  2.4.0                                 |
|   \\  /    A nd           | Web:      www.OpenFOAM.org                      |
|    \\/     M anipulation  |                                                 |
\*---------------------------------------------------------------------------*/
FoamFile
{
    version     2.0;
    format      ascii;
    class       volScalarField;
    location    "0.9";
    object      p_rgh;
}
// * * * * * * * * * * * * * * * * * * * * * * * * * * * * * * * * * * * * * //

dimensions      [1 -1 -2 0 0 0 0];

internalField   uniform 0;

boundaryField
{
    leftWall
    {
        type            fixedFluxPressure;
        gradient        uniform 0;
        value           uniform 0;
    }
    rightWall
    {
        type            fixedFluxPressure;
        gradient        uniform 0;
        value           uniform 0;
    }
    lowerWall
    {
        type            fixedFluxPressure;
        gradient        uniform 0;
        value           uniform 0;
    }
    atmosphere
    {
        type            totalPressure;
        rho             rho;
        psi             none;
        gamma           1;
        p0              uniform 0;
        value           nonuniform List<scalar> 
90
(
-1.57548e-64
-6.89312e-66
-2.23821e-67
-3.6204e-69
-5.84476e-71
-7.66821e-73
-1.0234e-74
-1.20435e-76
-1.36443e-78
-1.38854e-80
-1.33051e-82
-1.16525e-84
-9.58281e-87
-7.30327e-89
-5.24028e-91
-3.51921e-93
-2.23343e-95
-1.33624e-97
-7.58354e-100
-4.07969e-102
-2.08649e-104
-8.52878e-107
0
0
0
0
0
0
0
0
0
0
0
0
0
0
0
0
0
0
0
0
0
0
0
0
0
0
0
0
0
0
0
0
0
0
0
0
0
0
0
0
0
0
0
0
0
0
0
0
0
0
0
0
0
0
0
0
0
0
0
0
0
0
0
0
0
0
0
-1.35442e-156
)
;
    }
    defaultFaces
    {
        type            empty;
    }
}


// ************************************************************************* //
