/*--------------------------------*- C++ -*----------------------------------*\
| =========                 |                                                 |
| \\      /  F ield         | OpenFOAM: The Open Source CFD Toolbox           |
|  \\    /   O peration     | Version:  2.4.0                                 |
|   \\  /    A nd           | Web:      www.OpenFOAM.org                      |
|    \\/     M anipulation  |                                                 |
\*---------------------------------------------------------------------------*/
FoamFile
{
    version     2.0;
    format      ascii;
    class       surfaceScalarField;
    location    "0.9";
    object      phi;
}
// * * * * * * * * * * * * * * * * * * * * * * * * * * * * * * * * * * * * * //

dimensions      [0 3 -1 0 0 0 0];

internalField   nonuniform List<scalar> 
15214
(
4.68725e-39
1.28452e-40
2.35542e-38
6.57802e-40
3.43296e-38
3.86029e-39
5.98678e-37
2.75288e-39
1.12401e-40
-7.41496e-39
-5.97905e-37
-7.39674e-39
-2.89264e-38
2.89865e-39
4.84398e-39
4.64701e-39
5.39348e-38
5.19493e-39
6.37837e-37
6.8886e-39
6.2763e-37
-3.84148e-39
-5.35282e-37
-1.01678e-38
2.90643e-38
2.75281e-39
6.04165e-37
6.61251e-39
3.51005e-38
-2.90133e-39
2.36783e-38
-3.8816e-39
4.74463e-39
-6.59745e-40
6.59589e-40
-1.27653e-40
9.95778e-41
-1.85711e-41
1.28599e-41
-2.69435e-42
1.65596e-42
-3.43287e-43
1.94839e-43
-4.22767e-44
2.25611e-44
-4.79844e-45
4.82001e-45
-4.70317e-46
2.27833e-44
4.75633e-46
1.96983e-43
4.84713e-45
1.67582e-42
4.27464e-44
1.30319e-41
3.47555e-43
1.01034e-40
2.73172e-42
6.70748e-40
1.8871e-41
4.83095e-39
1.29995e-40
2.4235e-38
6.75536e-40
3.91597e-38
3.98999e-39
6.22899e-37
3.428e-39
3.91597e-38
-3.428e-39
2.4235e-38
-3.98999e-39
4.83095e-39
-6.75537e-40
6.70748e-40
-1.29995e-40
1.01034e-40
-1.88723e-41
1.30285e-41
-2.74072e-42
1.65785e-42
-4.08338e-43
1.27277e-43
-3.94232e-43
-2.09038e-43
-1.86872e-42
-1.60492e-43
-7.0376e-42
2.4148e-43
-2.40337e-41
-4.59236e-42
1.83597e-39
-1.54952e-40
8.69342e-39
-1.10099e-39
4.38289e-38
-6.00432e-39
6.77767e-38
-4.11819e-39
5.39571e-41
1.14458e-38
-6.74229e-38
1.14197e-38
-4.16589e-38
-4.33933e-39
1.91877e-39
-7.30556e-39
5.10166e-38
-8.24003e-39
1.13517e-37
-1.05417e-38
7.8638e-38
5.97769e-39
-1.30315e-38
1.55639e-38
1.0915e-38
-4.11811e-39
6.99862e-38
-1.01219e-38
4.41815e-38
4.34281e-39
8.75379e-39
6.03453e-39
1.87145e-39
1.1067e-39
2.99173e-40
1.95187e-40
4.74405e-41
2.64991e-41
6.53784e-42
3.48525e-42
8.70999e-43
4.11067e-43
1.06323e-43
4.70458e-44
1.26151e-44
5.03529e-45
2.75889e-45
4.70876e-46
1.27443e-44
-4.75765e-46
1.07547e-43
-5.08195e-45
8.82065e-43
-4.75162e-44
6.63139e-42
-4.15575e-43
4.82025e-41
-3.52716e-42
3.04815e-40
-2.6862e-41
1.91214e-39
-1.98251e-40
9.00377e-39
-1.12962e-39
4.57407e-38
-6.20239e-39
7.67732e-38
-5.24732e-39
4.57407e-38
5.24732e-39
9.00377e-39
6.20239e-39
1.91214e-39
1.12962e-39
3.04814e-40
1.9825e-40
4.81973e-41
2.68543e-41
6.60122e-42
3.47015e-42
7.22704e-43
2.5631e-44
-5.16091e-43
-2.24122e-42
-2.08259e-42
-1.23353e-41
-1.48625e-42
-4.75332e-41
2.09561e-42
-1.64897e-40
-3.15205e-41
5.03546e-40
-6.76566e-41
1.92955e-39
-4.44078e-40
7.54776e-39
-1.9896e-39
1.09609e-38
-1.23717e-39
1.85965e-41
3.76777e-39
-1.0849e-38
3.75551e-39
-6.94328e-39
-1.33433e-39
5.27804e-40
-2.52041e-39
9.08082e-39
-2.89257e-39
1.90334e-38
-3.41005e-39
1.34931e-38
1.97676e-39
-8.61962e-40
5.00486e-39
2.55074e-39
-1.23706e-39
1.15785e-38
-3.22611e-39
7.65899e-39
1.33605e-39
1.94963e-39
2.00367e-39
5.11639e-40
4.46416e-40
9.29538e-41
8.50044e-41
1.62134e-41
1.25001e-41
2.38959e-42
1.72692e-42
3.34962e-43
2.13632e-43
4.25114e-44
2.53106e-44
5.20356e-45
2.79739e-45
1.166e-45
2.67605e-46
5.25911e-45
-2.70509e-46
4.30276e-44
-2.82454e-45
3.3951e-43
-2.55779e-44
2.42683e-42
-2.16128e-43
1.65047e-41
-1.74937e-42
9.49981e-41
-1.26878e-41
5.25377e-40
-8.65121e-41
2.0257e-39
-4.57139e-40
8.07287e-39
-2.07575e-39
1.29838e-38
-1.69399e-39
8.07287e-39
1.69399e-39
2.0257e-39
2.07575e-39
5.25377e-40
4.57138e-40
9.49929e-41
8.65065e-41
1.64698e-41
1.26421e-41
2.22122e-42
1.41091e-42
-7.60363e-43
-2.13126e-42
-4.32272e-42
-1.39776e-41
-1.48852e-41
-7.69683e-41
-1.07079e-41
-3.03306e-40
1.45755e-41
-1.07274e-39
-2.04917e-40
1.00859e-40
-2.7284e-41
3.15538e-40
-1.38159e-40
9.98059e-40
-5.64207e-40
1.37177e-39
-3.35474e-40
4.56317e-42
1.06477e-39
-1.34624e-39
1.06063e-39
-8.74949e-40
-3.66978e-40
1.06132e-40
-7.26406e-40
1.23745e-39
-8.38741e-40
2.4751e-39
-9.57566e-40
1.80961e-39
5.57968e-40
6.87619e-41
1.39985e-39
4.4241e-40
-3.34962e-40
1.49793e-39
-8.97167e-40
1.02333e-39
3.67597e-40
3.20246e-40
5.67296e-40
1.02202e-40
1.36437e-40
2.08718e-41
2.77851e-41
3.94288e-42
4.31785e-42
6.15492e-43
6.2482e-43
8.98913e-44
8.02837e-44
1.17852e-44
9.80994e-45
1.47937e-45
1.11205e-45
3.38284e-46
1.08401e-46
1.49571e-45
-1.09618e-46
1.19346e-44
-1.12325e-45
9.11798e-44
-9.91822e-45
6.25777e-43
-8.12736e-44
4.02065e-42
-6.33491e-43
2.13945e-41
-4.38808e-42
1.05506e-40
-2.83274e-41
3.36994e-40
-1.4011e-40
1.10343e-39
-5.90602e-40
1.70804e-39
-4.74992e-40
1.10343e-39
4.74992e-40
3.36993e-40
5.90602e-40
1.05502e-40
1.40107e-40
2.13623e-41
2.82972e-41
3.79909e-42
4.14038e-42
-6.972e-43
-1.22631e-42
-7.09522e-42
-1.30309e-41
-2.90143e-41
-7.97916e-41
-1.00745e-40
-4.49175e-40
-7.35139e-41
-1.82182e-39
9.61611e-41
-6.58796e-39
-1.25923e-39
1.75854e-41
-4.08913e-41
4.43524e-41
-4.86496e-41
1.01569e-40
-1.33638e-40
1.27284e-40
-7.25993e-41
1.03012e-42
2.29281e-40
-1.21939e-40
2.28799e-40
-7.881e-41
-7.73135e-41
1.91182e-41
-1.59659e-40
1.32082e-40
-1.85317e-40
2.47286e-40
-2.05629e-40
1.93194e-40
1.20342e-40
4.1221e-41
2.99465e-40
6.70671e-41
-6.94602e-41
1.50196e-40
-1.9088e-40
1.06357e-40
7.74574e-41
4.48426e-41
1.22725e-40
1.82753e-41
3.14853e-41
4.15676e-42
6.75752e-42
8.45868e-43
1.10011e-42
1.3868e-43
1.65206e-43
2.10045e-44
2.19037e-44
2.83124e-45
2.74342e-45
3.63347e-46
3.17526e-46
8.45415e-47
3.14236e-47
3.67484e-46
-3.17862e-47
2.8685e-45
-3.2082e-46
2.13201e-44
-2.7748e-45
1.41143e-43
-2.21858e-44
8.63957e-43
-1.67624e-43
4.27371e-42
-1.1192e-42
1.89768e-41
-6.90019e-42
4.81113e-41
-3.24147e-41
1.20196e-40
-1.28339e-40
1.7506e-40
-1.01853e-40
1.20196e-40
1.01853e-40
4.81082e-41
1.28337e-40
1.89514e-41
3.23978e-41
4.084e-42
6.75199e-42
-4.60045e-43
-1.14866e-43
-7.88984e-42
-9.24881e-42
-4.44286e-41
-6.77531e-41
-1.83435e-40
-4.23228e-40
-6.50545e-40
-2.45775e-39
-4.82729e-40
-1.03532e-38
6.03105e-40
-3.85501e-38
-7.35825e-39
-4.97357e-43
-2.15431e-40
9.13799e-42
-1.09603e-40
9.53421e-42
-9.67408e-41
8.24658e-42
-3.1725e-41
4.89707e-43
4.1086e-41
-6.06986e-42
4.42954e-41
-3.59657e-42
-1.50937e-41
3.14404e-42
-3.1787e-41
1.0817e-41
-3.69897e-41
1.75108e-41
-4.03277e-41
1.62691e-41
2.36228e-41
9.64989e-42
5.85467e-41
9.38434e-42
-1.32899e-41
1.09191e-41
-3.71525e-41
8.25791e-42
1.50165e-41
5.7008e-42
2.41552e-41
2.98245e-42
6.46004e-42
7.42457e-43
1.44966e-42
1.60302e-43
2.44999e-43
2.73492e-44
3.79844e-44
4.26652e-45
5.16954e-45
5.88576e-46
6.61353e-46
7.69521e-47
7.78966e-47
1.81733e-47
7.8091e-48
7.7851e-47
-7.90135e-48
5.96572e-46
-7.87252e-47
4.33319e-45
-6.69152e-46
2.78597e-44
-5.2386e-45
1.63962e-43
-3.8566e-44
7.65387e-43
-2.4949e-43
3.11422e-42
-1.48232e-42
6.27437e-42
-6.66573e-42
1.04428e-41
-2.53494e-41
1.33143e-41
-1.99505e-41
1.0441e-41
1.99497e-41
6.25787e-42
2.53417e-41
2.9779e-42
6.59302e-42
-2.67324e-43
8.37472e-43
-7.15843e-42
-5.20466e-42
-4.52328e-41
-4.23997e-41
-2.56172e-40
-3.13389e-40
-1.08531e-39
-2.0238e-39
-3.94626e-39
-1.22385e-38
-2.98422e-39
-5.42317e-38
3.53134e-39
-2.08676e-37
-3.99241e-38
-1.55215e-41
-1.20633e-39
2.70481e-41
-5.76259e-40
1.4861e-41
-4.16519e-40
7.19462e-42
-1.04342e-40
1.9249e-42
-1.45024e-41
9.19067e-43
4.15541e-42
5.09618e-43
-3.209e-42
5.08786e-43
-5.75638e-42
5.30435e-43
-6.63372e-42
3.06086e-43
-7.1148e-42
9.22869e-43
4.16889e-42
1.79788e-42
1.02978e-41
1.29788e-42
-2.29243e-42
2.7337e-43
-6.50842e-42
3.14467e-43
2.62235e-42
7.11453e-43
4.27365e-42
4.6903e-43
1.18362e-42
1.24974e-43
2.75481e-43
2.82383e-44
4.8041e-44
4.96914e-45
7.64759e-45
7.93896e-46
1.06401e-45
1.11612e-46
1.38574e-46
1.48208e-47
1.65681e-47
3.54409e-48
1.67941e-48
1.49977e-47
-1.69966e-48
1.13169e-46
-1.67482e-47
8.06708e-46
-1.40252e-46
5.06571e-45
-1.07868e-45
2.8917e-44
-7.76918e-45
1.2912e-43
-4.89626e-44
4.92074e-43
-2.82032e-43
8.06583e-43
-1.22373e-42
6.4842e-43
-4.49897e-42
4.57905e-43
-3.51538e-42
6.39397e-43
3.51221e-42
7.26186e-43
4.47018e-42
-1.80739e-43
9.49016e-43
-5.0479e-42
-2.19146e-42
-3.73969e-41
-2.12858e-41
-2.36733e-40
-1.70227e-40
-1.37798e-39
-1.3018e-39
-6.03062e-39
-8.80632e-39
-2.26628e-38
-5.64373e-38
-1.75083e-38
-2.68161e-37
1.95012e-38
-1.08506e-36
-2.06089e-37
-2.80296e-41
-6.43417e-39
1.99872e-40
-2.9448e-39
9.66584e-41
-2.12251e-39
4.56681e-41
-5.11688e-40
1.11103e-41
-1.07893e-40
2.59453e-42
-1.66232e-41
5.64271e-43
-3.16854e-42
1.39474e-43
-1.31913e-42
-1.67816e-44
-1.15832e-42
-1.69367e-43
-1.18604e-42
-5.47236e-45
6.91067e-43
2.93517e-43
1.70478e-42
1.79275e-43
-3.73696e-43
-8.54069e-44
-1.07384e-42
-4.02625e-44
4.31993e-43
8.99725e-44
7.10592e-43
7.07841e-44
2.02082e-43
1.97988e-44
4.84609e-44
4.62582e-45
8.66782e-45
8.33986e-46
1.41025e-45
1.35814e-46
1.99811e-46
1.93957e-47
2.64154e-47
2.60933e-48
3.19824e-48
6.30655e-49
3.27239e-49
2.64105e-48
-3.31253e-49
1.96723e-47
-3.23366e-48
1.38065e-46
-2.67422e-47
8.5073e-46
-2.02639e-46
4.74159e-45
-1.43339e-45
2.04915e-44
-8.84052e-45
7.45332e-44
-4.96655e-44
1.04832e-43
-2.09293e-43
8.63063e-45
-7.50057e-43
-7.96259e-44
-5.83572e-43
-2.96034e-44
5.74414e-43
-2.39956e-43
6.65931e-43
-2.85446e-42
-6.04257e-43
-2.29271e-41
-7.40218e-42
-1.69656e-40
-6.58121e-41
-1.10294e-39
-5.43197e-40
-6.63348e-39
-4.36365e-39
-3.0185e-38
-3.16659e-38
-1.17786e-37
-2.2056e-37
-9.31049e-38
-1.1599e-36
9.63636e-38
-4.93706e-36
-9.43996e-37
5.17958e-40
-3.12414e-38
1.54304e-39
-1.40936e-38
6.33501e-40
-1.03113e-38
2.67847e-40
-2.38195e-39
6.16283e-41
-4.89326e-40
1.28307e-41
-7.74377e-41
2.15765e-42
-1.15797e-41
3.38222e-43
-1.66177e-42
3.25318e-44
-3.63325e-43
-3.61092e-44
-2.05585e-43
-1.14524e-44
1.05259e-43
4.45143e-44
2.64618e-43
2.48627e-44
-5.72861e-44
-2.22656e-44
-1.66336e-43
-1.2764e-44
6.68242e-44
1.17158e-44
1.10822e-43
1.03498e-44
3.22313e-44
2.99249e-45
7.91846e-45
7.16613e-46
1.44619e-45
1.31659e-46
2.39534e-46
2.17733e-47
3.44568e-47
3.14988e-48
4.61254e-48
4.28407e-49
5.6445e-49
1.04479e-49
5.82146e-50
4.33693e-49
-5.89398e-50
3.19561e-48
-5.70805e-49
2.21417e-47
-4.67072e-48
1.34366e-46
-3.49558e-47
7.35032e-46
-2.43575e-46
3.10035e-45
-1.47601e-45
1.09152e-44
-8.12361e-45
1.38036e-44
-3.3443e-44
-7.1807e-45
-1.17388e-43
-3.74189e-44
-9.24528e-44
-1.5022e-43
7.15311e-44
-1.29505e-42
-7.7529e-44
-1.13143e-41
-1.88482e-42
-9.06796e-41
-1.79654e-41
-6.89295e-40
-1.64475e-40
-4.63074e-39
-1.43096e-39
-2.90329e-38
-1.24878e-38
-1.385e-37
-1.01411e-37
-5.72764e-37
-8.05168e-37
-4.63564e-37
-4.87915e-36
4.46312e-37
-2.31256e-35
-4.23197e-36
8.56595e-39
-1.45032e-37
1.17474e-38
-5.72407e-38
3.97931e-39
-4.05945e-38
1.43438e-39
-8.94524e-39
3.07798e-40
-1.75741e-39
6.08866e-41
-2.68834e-40
9.80534e-42
-3.87061e-41
1.47229e-42
-4.98942e-42
1.94645e-43
-6.36538e-43
1.78529e-44
-9.94412e-44
4.42381e-46
1.02372e-44
6.64866e-45
4.28727e-44
3.42851e-45
-9.40979e-45
-3.7716e-45
-2.73525e-44
-2.25868e-45
1.09754e-44
1.53999e-45
1.83177e-44
1.4544e-45
5.42043e-45
4.30567e-46
1.35655e-45
1.05051e-46
2.51769e-46
1.95984e-47
4.22805e-47
3.28259e-48
6.15452e-48
4.80119e-49
8.32005e-49
6.59126e-50
1.02679e-49
1.62e-50
1.06569e-50
6.67272e-50
-1.07913e-50
4.87071e-49
-1.0385e-49
3.33748e-48
-8.42665e-49
1.99889e-47
-6.24531e-48
1.07562e-46
-4.30102e-47
4.43523e-46
-2.57106e-46
1.50218e-45
-1.39295e-45
1.45713e-45
-5.63402e-45
-5.51934e-45
-1.94776e-44
-4.68001e-44
-1.57143e-44
-4.18413e-43
6.63025e-45
-3.83835e-42
-6.8681e-44
-3.39017e-41
-9.17745e-43
-2.78187e-40
-9.61558e-42
-2.17976e-39
-1.05997e-40
-1.51979e-38
-1.22871e-39
-9.96632e-38
-1.5211e-38
-5.02055e-37
-1.78726e-37
-2.20737e-36
-1.87429e-36
-1.82187e-36
-1.47867e-35
1.5575e-36
-7.49985e-35
-1.41986e-35
-3.72366e-39
-1.02352e-40
-1.94635e-38
-5.5078e-40
-2.90095e-38
-3.55623e-39
-5.48707e-37
-2.62231e-39
5.7391e-45
6.84544e-39
5.48707e-37
6.84544e-39
2.901e-38
-2.62229e-39
1.947e-38
-3.55607e-39
3.74936e-39
-5.5006e-40
4.82531e-40
-1.01239e-40
6.91103e-41
-1.36537e-41
7.32476e-42
-1.89717e-42
-7.32612e-42
-4.45155e-43
-6.91225e-41
-1.89746e-42
-4.82644e-40
-1.36565e-41
-3.75039e-39
-1.01265e-40
-1.94784e-38
-5.50285e-40
-2.90803e-38
-3.55797e-39
-5.49198e-37
-2.63617e-39
-3.81961e-39
6.7423e-39
5.28746e-37
6.2815e-39
-3.81961e-39
-6.2815e-39
-5.49198e-37
-6.7423e-39
-2.90803e-38
2.63617e-39
-1.94784e-38
3.55797e-39
-3.7505e-39
5.50283e-40
-4.83683e-40
1.01239e-40
-7.76754e-41
1.34287e-41
-7.84779e-41
-2.30525e-44
-4.90985e-40
-1.36276e-41
-3.81127e-39
-1.02885e-40
-1.98907e-38
-5.62036e-40
-3.23387e-38
-3.64533e-39
-5.64848e-37
-3.08309e-39
-1.28688e-38
3.75016e-39
1.28677e-38
7.31839e-39
5.64841e-37
3.74995e-39
3.22672e-38
-3.08507e-39
1.95202e-38
-3.65724e-39
-5.99023e-40
-1.4576e-39
1.23801e-40
-7.22504e-39
9.22732e-40
-3.97671e-38
5.53785e-39
-6.28262e-38
3.94501e-39
3.79036e-45
-1.05823e-38
6.28262e-38
-1.05823e-38
3.97674e-38
3.94499e-39
7.22864e-39
5.53779e-39
1.47528e-39
9.24024e-40
2.19048e-40
1.53471e-40
3.2844e-41
1.93072e-41
3.70442e-42
2.42147e-42
-3.7052e-42
5.27681e-43
-3.28508e-41
2.42175e-42
-2.1911e-40
1.93101e-41
-1.47582e-39
1.535e-40
-7.23294e-39
9.2429e-40
-3.98008e-38
5.54021e-39
-6.30496e-38
3.96457e-39
-1.50873e-39
-1.04264e-38
5.53742e-38
-9.63868e-39
-1.50873e-39
9.63868e-39
-6.30496e-38
1.04264e-38
-3.98008e-38
-3.96457e-39
-7.23295e-39
-5.54021e-39
-1.47589e-39
-9.24287e-40
-2.19656e-40
-1.53471e-40
-3.72041e-41
-1.90408e-41
-3.76211e-41
2.55788e-44
-2.23347e-40
1.92785e-41
-1.50449e-39
1.55598e-40
-7.41856e-39
9.4117e-40
-4.10528e-38
5.67411e-39
-6.87695e-38
4.7327e-39
-3.38242e-38
-5.83218e-39
3.38236e-38
-1.13873e-38
6.87653e-38
-5.83199e-39
4.10169e-38
4.73372e-39
7.22525e-39
5.66556e-39
6.93263e-40
-4.03165e-40
5.35401e-41
-1.61346e-39
3.73666e-40
-6.88585e-39
1.84663e-39
-1.02703e-38
1.20769e-39
8.20221e-46
-3.5059e-39
1.02703e-38
-3.5059e-39
6.88591e-39
1.20768e-39
1.61422e-39
1.8466e-39
4.06272e-40
3.7423e-40
6.84713e-41
6.69233e-41
1.12838e-41
9.12585e-42
1.34987e-42
1.20186e-42
-1.3502e-42
2.74514e-43
-1.12866e-41
1.20202e-42
-6.8496e-41
9.12745e-42
-4.06481e-40
6.69387e-41
-1.6158e-39
3.74369e-40
-6.89742e-39
1.84781e-39
-1.03403e-38
1.21694e-39
-4.17789e-40
-3.43778e-39
8.58601e-39
-3.12241e-39
-4.17789e-40
3.12241e-39
-1.03403e-38
3.43778e-39
-6.89742e-39
-1.21694e-39
-1.6158e-39
-1.84781e-39
-4.06506e-40
-3.74368e-40
-6.8707e-41
-6.69231e-41
-1.28885e-41
-8.98717e-42
-1.30478e-41
1.37128e-44
-7.00516e-41
9.11037e-42
-4.16233e-40
6.79709e-41
-1.67276e-39
3.8229e-40
-7.23364e-39
1.90547e-39
-1.15368e-38
1.52305e-39
-5.61944e-39
-1.97467e-39
5.61929e-39
-3.82944e-39
1.15359e-38
-1.97457e-39
7.22657e-39
1.52354e-39
1.6339e-39
1.90202e-39
2.80134e-40
-8.15197e-41
1.7408e-41
-2.6556e-40
1.14351e-40
-9.16859e-40
5.23741e-40
-1.30061e-39
3.30053e-40
8.93591e-47
-9.93982e-40
1.30061e-39
-9.93982e-40
9.16862e-40
3.30052e-40
2.65648e-40
5.23739e-40
8.17511e-41
1.14597e-40
1.54637e-41
2.1943e-41
2.75588e-42
3.16242e-42
3.46758e-43
4.36616e-43
-3.46853e-43
1.03456e-43
-2.75668e-42
4.36681e-43
-1.54705e-41
3.16306e-42
-8.18072e-41
2.1949e-41
-2.66057e-40
1.14649e-40
-9.1968e-40
5.24176e-40
-1.31648e-39
3.33267e-40
-8.457e-41
-9.71603e-40
1.01909e-39
-8.76172e-40
-8.457e-41
8.76172e-40
-1.31648e-39
9.71603e-40
-9.1968e-40
-3.33267e-40
-2.66058e-40
-5.24176e-40
-8.18142e-41
-1.14649e-40
-1.55274e-41
-2.1943e-41
-3.17165e-42
-3.11012e-42
-3.21413e-42
5.31166e-45
-1.58726e-41
3.1564e-42
-8.41678e-41
2.23213e-41
-2.78703e-40
1.17374e-40
-9.85558e-40
5.42905e-40
-1.49756e-39
4.25484e-40
-7.19913e-40
-5.65674e-40
7.19891e-40
-1.09223e-39
1.49746e-39
-5.65652e-40
9.84822e-40
4.25562e-40
2.7393e-40
5.41382e-40
8.4859e-41
-1.48234e-41
4.19672e-42
-3.72533e-41
2.64106e-41
-9.44029e-41
1.13465e-40
-1.23566e-40
6.90542e-41
-1.47061e-47
-2.153e-40
1.23566e-40
-2.153e-40
9.44005e-41
6.90544e-41
3.72477e-41
1.13468e-40
1.47419e-41
2.64905e-41
3.0971e-42
5.34954e-42
5.93822e-43
8.07804e-43
7.79479e-44
1.15799e-43
-7.79718e-44
2.82837e-44
-5.94019e-43
1.15818e-43
-3.09876e-42
8.07987e-43
-1.4755e-41
5.35122e-42
-3.73403e-41
2.65049e-41
-9.50091e-41
1.13583e-40
-1.26756e-40
6.98763e-41
-1.53505e-41
-2.09834e-40
8.31282e-41
-1.87987e-40
-1.53505e-41
1.87987e-40
-1.26756e-40
2.09834e-40
-9.50091e-41
-6.98763e-41
-3.73405e-41
-1.13583e-40
-1.47567e-41
-2.65047e-41
-3.11209e-42
-5.34952e-42
-6.8803e-43
-7.93501e-43
-6.97903e-43
1.48403e-45
-3.18967e-42
8.06118e-43
-1.52596e-41
5.44934e-42
-3.98292e-41
2.71965e-41
-1.06561e-40
1.18111e-40
-1.48653e-40
9.09015e-41
-6.93136e-41
-1.23679e-40
6.93126e-41
-2.37865e-40
1.48659e-40
-1.23676e-40
1.06618e-40
9.09007e-41
3.9783e-41
1.1764e-40
1.93353e-41
-2.45769e-42
8.70989e-43
-4.7436e-42
5.3801e-42
-7.1243e-42
2.23435e-41
-7.51654e-42
1.32943e-41
2.89369e-48
-4.24502e-41
7.51653e-42
-4.245e-41
7.1237e-42
1.32956e-41
4.73916e-42
2.23521e-41
2.42327e-42
5.44159e-42
5.55668e-43
1.15029e-42
1.12912e-43
1.80331e-43
1.53385e-44
2.67045e-44
-1.53436e-44
6.6888e-45
-1.12954e-43
2.67092e-44
-5.56014e-43
1.80376e-43
-2.42595e-42
1.1507e-42
-4.75749e-42
5.44498e-42
-7.23963e-42
2.23789e-41
-8.09056e-42
1.34793e-41
-2.53921e-42
-4.1273e-41
2.20334e-42
-3.68248e-41
-2.53921e-42
3.68248e-41
-8.09057e-42
4.1273e-41
-7.23964e-42
-1.34793e-41
-4.75753e-42
-2.23788e-41
-2.4263e-42
-5.44494e-42
-5.58732e-43
-1.15029e-42
-1.31576e-43
-1.76947e-43
-1.33572e-43
3.57572e-46
-5.73992e-43
1.79924e-43
-2.52122e-42
1.17321e-42
-5.1973e-42
5.59852e-42
-9.08888e-42
2.33455e-41
-1.02905e-41
1.77439e-41
-4.34968e-42
-2.45461e-41
4.35015e-42
-4.70582e-41
1.02962e-41
-2.45461e-41
9.13076e-42
1.77387e-41
5.32263e-42
2.32207e-41
3.91299e-42
-3.70211e-43
1.27153e-43
-5.86646e-43
6.91903e-43
-2.19056e-43
3.90479e-42
1.66698e-43
2.29885e-42
9.12657e-47
-7.52325e-42
-1.6612e-43
-7.52247e-42
2.2216e-43
2.3065e-42
5.91521e-43
3.95733e-42
3.83197e-43
9.98016e-43
9.38348e-44
2.19009e-43
1.994e-44
3.54302e-44
2.78138e-45
5.38977e-45
-2.78238e-45
1.37896e-45
-1.99481e-44
5.39078e-45
-9.39004e-44
3.54398e-44
-3.83697e-43
2.19095e-43
-5.9486e-43
9.98715e-43
-2.42663e-43
3.96272e-42
6.89495e-44
2.34263e-42
-4.03702e-43
-7.29797e-42
-8.54834e-43
-6.48824e-42
-4.03702e-43
6.48824e-42
6.89494e-44
7.29797e-42
-2.42664e-43
-2.34263e-42
-5.94868e-43
-3.96272e-42
-3.83763e-43
-9.98706e-43
-9.44075e-44
-2.19008e-43
-2.33438e-44
-3.47323e-44
-2.37136e-44
7.48794e-47
-9.71739e-44
3.53447e-44
-4.00428e-43
2.23616e-43
-6.68206e-43
1.02874e-42
-5.2868e-43
4.14561e-42
-1.18869e-43
3.11624e-42
6.28576e-44
-4.37478e-42
-6.26686e-44
-8.36346e-42
1.20545e-43
-4.37489e-42
5.40352e-43
3.11437e-42
7.07959e-43
4.11781e-42
7.07758e-43
3.21346e-43
-2.05403e-42
1.11347e-44
-1.74008e-42
7.49244e-44
3.5505e-43
1.48328e-43
3.3855e-43
6.34642e-46
-1.25682e-42
-1.43847e-43
-1.25306e-42
-4.68512e-44
3.77662e-43
7.47662e-44
6.58298e-43
5.80387e-44
1.70525e-43
1.48977e-44
3.85888e-44
3.27213e-45
6.403e-45
4.65971e-46
9.95985e-46
-4.66151e-46
2.59317e-46
-3.27355e-45
9.96182e-46
-1.49091e-44
6.40485e-45
-5.81243e-44
3.86052e-44
-7.53271e-44
1.70657e-43
4.34903e-44
6.59297e-43
1.28461e-43
3.84233e-43
-6.14079e-44
-1.21306e-42
-2.34148e-43
-1.07559e-42
-6.14079e-44
1.07559e-42
1.28461e-43
1.21306e-42
4.34902e-44
-3.84233e-43
-7.53285e-44
-6.59297e-43
-5.81359e-44
-1.70655e-43
-1.4996e-44
-3.85887e-44
-3.84506e-45
-6.27172e-45
-3.90811e-45
1.4267e-47
-1.54594e-44
6.38669e-45
-6.08574e-44
3.94372e-44
-8.68585e-44
1.7606e-43
9.12199e-46
6.91353e-43
1.15104e-43
5.15174e-43
7.5682e-44
-7.31817e-43
-7.56357e-44
-1.39577e-42
-1.1474e-43
-7.31857e-43
1.50985e-45
5.14695e-43
9.53643e-44
6.85804e-43
1.19408e-43
5.97821e-42
1.25632e-41
9.08748e-43
-1.04454e-41
2.3986e-43
-1.48557e-42
6.12577e-44
-1.18635e-43
4.01165e-45
-2.13088e-43
-2.98388e-44
-1.9722e-43
-1.3147e-44
5.79681e-44
9.73027e-45
1.02692e-43
8.50473e-45
2.72154e-44
2.25489e-45
6.31339e-45
5.07528e-46
1.06972e-45
7.34462e-47
1.69455e-46
-7.34757e-47
4.4768e-47
-5.07759e-46
1.69491e-46
-2.25671e-45
1.07005e-45
-8.51809e-45
6.31632e-45
-9.81469e-45
2.7239e-44
1.26698e-44
1.02874e-43
2.79364e-44
5.92026e-44
-9.02747e-45
-1.89123e-43
-4.235e-44
-1.67298e-43
-9.02747e-45
1.67298e-43
2.79363e-44
1.89123e-43
1.26698e-44
-5.92026e-44
-9.81493e-45
-1.02874e-43
-8.51997e-45
-2.72387e-44
-2.27067e-45
-6.31344e-45
-5.98184e-46
-1.04706e-45
-6.0826e-46
2.49003e-48
-2.34368e-45
1.06687e-45
-8.94047e-45
6.4574e-45
-1.15469e-44
2.81386e-44
6.50932e-45
1.08095e-43
2.7238e-44
7.9936e-44
1.62361e-44
-1.14727e-43
-1.62269e-44
-2.18375e-43
-2.71706e-44
-1.14737e-43
-6.07504e-45
7.98359e-44
1.30872e-44
1.07095e-43
1.88498e-44
8.10118e-41
-1.41037e-40
1.10718e-41
-1.70092e-41
1.62362e-42
-1.81874e-42
1.90039e-43
-1.71669e-43
2.05607e-44
-4.97049e-44
-2.80121e-45
-3.39439e-44
-2.08809e-45
9.36223e-45
1.2952e-45
1.69686e-44
1.19809e-45
4.57847e-45
3.24872e-46
1.08257e-45
7.44754e-47
1.86412e-46
1.09185e-47
2.99496e-47
-1.09222e-47
8.00305e-48
-7.45005e-47
2.99565e-47
-3.25021e-46
1.86477e-46
-1.19856e-45
1.08316e-45
-1.29016e-45
4.58351e-45
2.21165e-45
1.70105e-44
4.5357e-45
9.69232e-45
-1.27331e-45
-3.12523e-44
-6.48865e-45
-2.7595e-44
-1.27331e-45
2.7595e-44
4.5357e-45
3.12523e-44
2.21164e-45
-9.69232e-45
-1.2902e-45
-1.70105e-44
-1.19885e-45
-4.58345e-45
-3.27129e-46
-1.08264e-45
-8.79855e-47
-1.82364e-46
-8.95005e-47
4.4896e-49
-3.3798e-46
1.85903e-46
-1.26035e-45
1.10803e-45
-1.53815e-45
4.73985e-45
1.35317e-45
1.79027e-44
4.53211e-45
1.31592e-44
2.63026e-45
-1.90417e-44
-2.62864e-45
-3.61864e-44
-4.52093e-45
-1.90438e-44
-1.28335e-45
1.31389e-44
1.78558e-45
1.77182e-44
3.14357e-45
1.48833e-37
-8.57147e-37
1.43928e-37
-3.48251e-37
4.12758e-38
-2.51317e-37
1.26668e-38
-4.86661e-38
2.485e-39
-9.0335e-39
4.63054e-40
-1.30746e-39
7.13863e-41
-1.81982e-40
1.03892e-41
-2.26434e-41
1.35689e-42
-2.7138e-42
1.67126e-43
-3.05072e-43
1.89602e-44
-3.09245e-44
3.04586e-45
4.8424e-46
7.02933e-46
-1.12516e-45
-5.70555e-46
-2.39718e-45
-3.59264e-46
9.47868e-46
2.13484e-46
1.59393e-45
2.09787e-46
4.80146e-46
6.31407e-47
1.23104e-46
1.56127e-47
2.33057e-47
2.9458e-48
3.98883e-48
4.98033e-49
5.90066e-49
7.34363e-50
8.09266e-50
1.01506e-50
1.01125e-50
2.50636e-51
1.05998e-51
1.02398e-50
-1.07283e-51
7.40111e-50
-1.02199e-50
4.99974e-49
-8.18483e-50
2.92348e-48
-5.97163e-49
1.49888e-47
-4.03607e-48
5.31699e-47
-2.35212e-47
7.9825e-47
-1.22946e-46
-1.31834e-45
-4.57742e-46
-1.71296e-44
-1.21959e-45
-1.74176e-43
3.88429e-45
-1.71961e-42
5.60476e-44
-1.6161e-41
5.51385e-43
-1.46477e-40
5.22148e-42
-1.2376e-39
4.4522e-41
-1.009e-38
3.11815e-40
-7.34808e-38
8.90383e-40
-5.15323e-37
-2.10277e-38
-2.78422e-36
-5.62022e-37
-1.42787e-35
-8.2407e-36
-1.1866e-35
-8.77563e-35
1.20297e-35
-5.1146e-35
-8.79447e-35
1.37943e-35
2.04326e-36
-1.18212e-36
1.59476e-36
-1.0339e-36
3.51673e-37
-2.88145e-37
8.3103e-38
-4.61637e-38
1.42722e-38
-7.75684e-39
2.40489e-39
-1.07625e-39
3.4777e-40
-1.47046e-40
4.82427e-41
-1.81221e-41
6.08967e-42
-2.16048e-42
7.34862e-43
-2.40411e-43
8.28926e-44
-2.55895e-44
9.03922e-45
-2.2723e-45
9.58052e-46
-3.27593e-46
4.22283e-47
-2.36847e-46
-2.12583e-47
8.32115e-47
1.74952e-47
1.4373e-46
1.6828e-47
4.38432e-47
5.1261e-48
1.13545e-47
1.28614e-48
2.16984e-48
2.45826e-49
3.74048e-49
4.20619e-50
5.56894e-50
6.26757e-51
7.67494e-51
8.74746e-52
9.63111e-52
2.19571e-52
1.01275e-52
9.07841e-52
-1.01995e-52
6.65302e-51
-9.66704e-52
4.65379e-50
-7.67179e-51
2.97642e-49
-5.51562e-50
1.88359e-48
-3.62923e-49
1.19076e-47
-1.99454e-48
9.24335e-47
-8.95683e-48
8.35784e-46
-1.36647e-47
8.57382e-45
2.11784e-46
8.66723e-44
3.89018e-45
8.41544e-43
4.25858e-44
7.7487e-42
4.28598e-43
6.83426e-41
4.10194e-42
5.6258e-40
3.55564e-41
4.41482e-39
2.60426e-40
3.10963e-38
1.00117e-39
2.05642e-37
-1.16119e-38
1.06767e-36
-3.76325e-37
4.87264e-36
-5.80449e-36
5.27721e-36
-6.46111e-35
-1.12634e-36
-2.38239e-33
-6.48393e-35
-2.94966e-36
3.84942e-35
-1.92263e-35
2.64462e-36
-1.30865e-36
2.03593e-36
4.86885e-38
4.50945e-37
2.76098e-38
7.04383e-38
6.70596e-39
1.14249e-38
1.04077e-39
1.58238e-39
1.48496e-40
2.14163e-40
1.85513e-41
2.63737e-41
2.21855e-42
3.12925e-42
2.46553e-43
3.47403e-43
2.63874e-44
3.71039e-44
2.70308e-45
3.76522e-45
2.55827e-46
3.63678e-46
7.05705e-48
3.19727e-47
9.21976e-48
4.46381e-48
1.2043e-47
1.63754e-48
3.67085e-48
4.44248e-49
9.59693e-49
1.08534e-49
1.85299e-49
2.06942e-50
3.22538e-50
3.54926e-51
4.84396e-51
5.31047e-52
6.72651e-52
7.49683e-53
8.49722e-53
2.66197e-53
8.93314e-54
1.84443e-52
-9.74022e-54
1.98511e-51
-9.4979e-53
2.22701e-50
-8.04134e-52
2.54973e-49
-6.54266e-51
2.95772e-48
-5.37947e-50
3.40037e-47
-4.52065e-49
3.84684e-46
-4.18393e-48
4.21987e-45
-4.14903e-47
4.48534e-44
-4.428e-46
4.57071e-43
-4.73756e-45
4.48713e-42
-5.00934e-44
4.18286e-41
-5.04438e-43
3.74821e-40
-4.79481e-42
3.13744e-39
-4.05762e-41
2.52089e-38
-2.73382e-40
1.81937e-37
-4.66479e-40
1.25313e-36
2.65119e-38
6.77584e-36
6.37377e-37
3.40532e-35
9.21741e-36
2.9755e-35
9.86752e-35
1.59697e-35
2.69149e-33
9.88459e-35
-2.82393e-35
2.21374e-36
-8.90037e-37
1.37388e-36
-6.67059e-37
3.08383e-37
1.39364e-37
7.43033e-38
3.92111e-38
1.30005e-38
8.36965e-39
2.22405e-39
1.26634e-39
3.2531e-40
1.79462e-40
4.55313e-41
2.24701e-41
5.78729e-42
2.69687e-42
7.02348e-43
3.01046e-43
7.96063e-44
3.23267e-44
8.63985e-45
3.29259e-45
8.89367e-46
3.22349e-46
8.76473e-47
2.88979e-47
8.13825e-48
3.32477e-48
8.64167e-49
1.21261e-48
1.72382e-49
3.22771e-49
3.85297e-50
8.15286e-50
8.85246e-51
1.56713e-50
1.66511e-51
2.73058e-51
2.85098e-52
4.11431e-52
4.27717e-53
5.73139e-53
6.0736e-54
7.26074e-54
2.33329e-54
7.29363e-55
1.7171e-53
-1.34939e-54
1.8847e-52
-1.5302e-53
2.13646e-51
-1.66287e-52
2.45099e-50
-1.8515e-51
2.82302e-49
-2.12737e-50
3.20547e-48
-2.47712e-49
3.56237e-47
-2.90352e-48
3.83066e-46
-3.35516e-47
3.97363e-45
-3.80354e-46
3.94673e-44
-4.16848e-45
3.75177e-43
-4.41212e-44
3.38268e-42
-4.43027e-43
2.89695e-41
-4.17476e-42
2.31695e-40
-3.44068e-41
1.73594e-39
-2.09205e-40
1.17296e-38
2.31726e-40
7.1202e-38
3.4595e-38
3.485e-37
7.25501e-37
1.2486e-36
1.00422e-35
2.25633e-36
1.03674e-34
1.90247e-36
7.87177e-35
1.03892e-34
6.5816e-37
2.55776e-37
-6.76324e-37
7.43112e-39
-1.18734e-37
1.35439e-38
1.72909e-38
6.94481e-39
6.71541e-39
1.64575e-39
1.57358e-39
3.4275e-40
2.5552e-40
5.63324e-41
3.77858e-41
8.56384e-42
4.91133e-42
1.15295e-42
6.05539e-43
1.46151e-43
6.92283e-44
1.71225e-44
7.5735e-45
1.90768e-45
7.83941e-46
2.00506e-46
7.79167e-47
2.01523e-47
7.30253e-48
1.92314e-48
7.2401e-49
1.86936e-49
1.35209e-49
2.39456e-50
2.87259e-50
3.8841e-51
6.70619e-51
7.59684e-52
1.2656e-51
1.35267e-52
2.19655e-52
2.26746e-53
3.3152e-53
3.36373e-54
4.63208e-54
2.57983e-55
5.92276e-55
-2.913e-54
1.10211e-55
-4.10031e-53
6.18845e-55
-5.49339e-52
8.93323e-54
-7.15019e-51
1.25129e-52
-9.02925e-50
1.6882e-51
-1.10718e-48
2.20088e-50
-1.31402e-47
2.77422e-49
-1.51182e-46
3.38738e-48
-1.67674e-45
3.99665e-47
-1.799e-44
4.56643e-46
-1.84931e-43
5.02442e-45
-1.83547e-42
5.34804e-44
-1.7287e-41
5.45682e-43
-1.57073e-40
5.40303e-42
-1.33067e-39
5.13638e-41
-1.08862e-38
4.85521e-40
-7.95513e-38
4.52226e-39
-5.6049e-37
4.39151e-38
-3.04034e-36
4.14587e-37
-1.56916e-35
3.76934e-36
-1.3042e-35
2.6721e-35
1.3364e-35
1.3179e-34
2.67426e-35
1.56747e-35
2.37014e-38
-1.31299e-37
-1.0547e-38
-2.41357e-38
-1.18286e-39
9.70015e-40
3.63239e-40
8.52961e-40
1.4901e-40
2.41396e-40
3.86228e-41
4.3142e-41
7.08355e-42
6.85343e-42
1.15379e-42
9.38346e-43
1.62929e-43
1.20505e-43
2.138e-44
1.42173e-44
2.57334e-45
1.59493e-45
2.9281e-46
1.68437e-46
3.13159e-47
1.70275e-47
3.19483e-48
1.63335e-48
3.09695e-49
1.55651e-49
2.95893e-50
1.92894e-50
3.1877e-51
2.97482e-51
4.10015e-52
5.80494e-52
6.65259e-53
1.03081e-52
1.08854e-53
1.7464e-53
1.75738e-54
2.61543e-54
2.65062e-55
3.64918e-55
1.36829e-55
5.25385e-56
1.41171e-54
9.5495e-56
1.90579e-53
1.29174e-54
2.51277e-52
1.80682e-53
3.22394e-51
2.46473e-52
4.01487e-50
3.27217e-51
4.85203e-49
4.22805e-50
5.67022e-48
5.30404e-49
6.41095e-47
6.46353e-48
6.97488e-46
7.62187e-47
7.31619e-45
8.71171e-46
7.33345e-44
9.59324e-45
7.059e-43
1.02216e-43
6.42356e-42
1.04406e-42
5.58831e-41
1.03432e-41
4.50823e-40
9.8235e-41
3.45574e-39
9.24274e-40
2.34973e-38
8.51086e-39
1.49189e-37
8.11103e-38
7.25625e-37
7.46913e-37
3.04828e-36
6.65304e-36
2.45753e-36
4.61865e-35
-2.4364e-36
2.27262e-34
4.61143e-35
-3.00986e-36
2.77537e-39
-1.67334e-38
-2.60648e-39
-3.48802e-39
-4.73035e-40
-8.47664e-41
-2.47135e-41
7.58924e-41
8.7005e-42
2.73692e-41
3.67325e-42
5.40405e-42
7.89992e-43
9.16448e-43
1.40824e-43
1.31508e-43
2.1049e-44
1.74903e-44
2.87704e-45
2.12128e-45
3.56947e-46
2.43181e-46
4.15877e-47
2.61445e-47
4.53245e-48
2.68224e-48
4.69695e-49
2.61213e-49
4.61821e-50
2.47887e-50
4.40646e-51
2.62395e-51
4.36795e-52
3.24016e-52
4.7707e-53
5.16696e-53
6.33348e-54
8.35942e-54
9.13074e-55
1.35646e-54
1.4042e-55
1.99779e-55
6.41802e-56
2.77078e-56
6.41964e-55
4.35904e-57
8.93167e-54
1.28775e-56
1.21692e-52
1.79535e-55
1.6144e-51
2.52293e-54
2.08479e-50
3.45945e-53
2.61443e-49
4.61936e-52
3.1844e-48
6.00794e-51
3.75385e-47
7.59113e-50
4.28719e-46
9.32732e-49
4.71756e-45
1.11049e-47
5.01565e-44
1.28588e-46
5.10536e-43
1.44551e-45
5.00764e-42
1.60629e-44
4.65666e-41
1.80397e-43
4.16434e-40
2.20062e-42
3.46866e-39
3.077e-41
2.77476e-38
4.99463e-40
1.98165e-37
8.51833e-39
1.34987e-36
1.3918e-37
7.09466e-36
2.00131e-36
3.43934e-35
2.39806e-35
2.84789e-35
2.22794e-34
-2.84551e-35
4.49381e-34
2.22334e-34
-3.40167e-35
3.02509e-40
-2.37522e-39
-3.49924e-40
-5.1566e-40
-7.31297e-41
-4.43947e-41
-8.25055e-42
3.46213e-42
5.81942e-44
2.58378e-42
2.83294e-43
5.95305e-43
7.48456e-44
1.10172e-43
1.46651e-44
1.67095e-44
2.31688e-45
2.31391e-45
3.28941e-46
2.89222e-46
4.19716e-47
3.39467e-47
4.9967e-48
3.7188e-48
5.54084e-49
3.8742e-49
5.82398e-50
3.82538e-50
5.79776e-51
3.64571e-51