/*--------------------------------*- C++ -*----------------------------------*\
| =========                 |                                                 |
| \\      /  F ield         | OpenFOAM: The Open Source CFD Toolbox           |
|  \\    /   O peration     | Version:  2.4.0                                 |
|   \\  /    A nd           | Web:      www.OpenFOAM.org                      |
|    \\/     M anipulation  |                                                 |
\*---------------------------------------------------------------------------*/
FoamFile
{
    version     2.0;
    format      ascii;
    class       volVectorField;
    location    "0.9";
    object      U;
}
// * * * * * * * * * * * * * * * * * * * * * * * * * * * * * * * * * * * * * //

dimensions      [0 1 -1 0 0 0 0];

internalField   nonuniform List<vector> 
7700
(
(1.53111e-35 5.04645e-36 0)
(1.1846e-34 3.07442e-35 0)
(5.53763e-34 1.79899e-34 0)
(4.59667e-33 1.27555e-34 0)
(4.14791e-33 -3.44552e-34 0)
(-4.1447e-33 -3.43789e-34 0)
(-4.5778e-33 1.33927e-34 0)
(-4.18419e-34 2.16357e-34 0)
(5.56663e-34 2.42282e-34 0)
(5.15329e-33 3.19523e-34 0)
(8.87952e-33 -1.79116e-34 0)
(6.91328e-34 -4.72105e-34 0)
(-3.45593e-33 1.27553e-34 0)
(4.28541e-33 3.07432e-34 0)
(4.61577e-33 -1.34034e-34 0)
(5.56663e-34 -1.80787e-34 0)
(1.19102e-34 -3.08687e-35 0)
(1.63071e-35 -5.61253e-36 0)
(2.51716e-36 -7.76712e-37 0)
(3.24739e-37 -1.06688e-37 0)
(4.22748e-38 -1.30209e-38 0)
(4.98522e-39 -1.54564e-39 0)
(5.75363e-40 -1.70372e-40 0)
(6.85178e-41 -1.63355e-41 0)
(6.90424e-41 1.65131e-41 0)
(5.81181e-40 1.72029e-40 0)
(5.0406e-39 1.56196e-39 0)
(4.27863e-38 1.31729e-38 0)
(3.29137e-37 1.0806e-37 0)
(2.55432e-36 7.88151e-37 0)
(1.65885e-35 5.70586e-36 0)
(1.21284e-34 3.15356e-35 0)
(5.70368e-34 1.85597e-34 0)
(4.71791e-33 1.59075e-34 0)
(4.71791e-33 -1.59075e-34 0)
(5.70368e-34 -1.85597e-34 0)
(1.21284e-34 -3.15356e-35 0)
(1.65885e-35 -5.70586e-36 0)
(2.55432e-36 -7.88154e-37 0)
(3.29122e-37 -1.08085e-37 0)
(4.27031e-38 -1.33399e-38 0)
(4.61111e-39 -2.50801e-39 0)
(-9.78689e-40 -5.09491e-39 0)
(-4.98713e-39 -1.81272e-38 0)
(4.06794e-40 -6.1129e-38 0)
(6.4849e-39 -1.16468e-38 0)
(6.6722e-36 -2.27444e-36 0)
(4.57254e-35 -1.65488e-35 0)
(2.0238e-34 -9.65939e-35 0)
(1.04847e-33 -6.81478e-35 0)
(8.85836e-34 1.84537e-34 0)
(-8.84296e-34 1.84167e-34 0)
(-1.03991e-33 -7.13743e-35 0)
(-1.49006e-34 -1.16075e-34 0)
(2.03767e-34 -1.30175e-34 0)
(1.25222e-33 -1.70866e-34 0)
(1.98748e-33 9.62169e-35 0)
(2.56799e-34 2.52684e-34 0)
(-6.28709e-34 -6.81469e-35 0)
(9.40218e-34 -1.64734e-34 0)
(1.05715e-33 7.14227e-35 0)
(2.03767e-34 9.70221e-35 0)
(4.60615e-35 1.66314e-35 0)
(7.34874e-36 2.85776e-36 0)
(1.18948e-36 3.75948e-37 0)
(1.64442e-37 4.8544e-38 0)
(2.21442e-38 5.61278e-39 0)
(2.71357e-39 6.3331e-40 0)
(3.20815e-40 6.68219e-41 0)
(3.92138e-41 6.18604e-42 0)
(3.95232e-41 -6.24892e-42 0)
(3.24191e-40 -6.7428e-41 0)
(2.74514e-39 -6.39489e-40 0)
(2.24285e-38 -5.67268e-39 0)
(1.66828e-37 -4.91091e-38 0)
(1.20884e-36 -3.80914e-37 0)
(7.49039e-36 -2.90056e-36 0)
(4.7081e-35 -1.69575e-35 0)
(2.09882e-34 -9.94927e-35 0)
(1.09553e-33 -8.50988e-35 0)
(1.09553e-33 8.50988e-35 0)
(2.09882e-34 9.94927e-35 0)
(4.7081e-35 1.69575e-35 0)
(7.49039e-36 2.90056e-36 0)
(1.20882e-36 3.8089e-37 0)
(1.66699e-37 4.894e-38 0)
(2.16958e-38 4.52793e-39 0)
(-1.07025e-39 -5.99953e-39 0)
(-1.36587e-38 -3.52321e-38 0)
(-4.57772e-38 -1.33745e-37 0)
(3.36045e-39 -4.57519e-37 0)
(5.64469e-38 -8.74565e-38 0)
(2.11968e-36 -1.06942e-36 0)
(1.22512e-35 -7.21056e-36 0)
(4.2817e-35 -3.29795e-35 0)
(1.72592e-34 -2.07228e-35 0)
(1.40225e-34 6.24635e-35 0)
(-1.39694e-34 6.2271e-35 0)
(-1.69931e-34 -2.22686e-35 0)
(-2.82262e-35 -4.15793e-35 0)
(4.32894e-35 -4.76449e-35 0)
(2.15872e-34 -5.66233e-35 0)
(3.27332e-34 3.27819e-35 0)
(5.77528e-35 8.31856e-35 0)
(-8.23527e-35 -2.0722e-35 0)
(1.5515e-34 -5.36965e-35 0)
(1.75294e-34 2.22952e-35 0)
(4.32894e-35 3.32031e-35 0)
(1.2352e-35 7.2512e-36 0)
(2.24984e-36 1.35439e-36 0)
(4.03003e-37 1.95903e-37 0)
(5.97191e-38 2.66679e-38 0)
(8.47832e-39 3.25807e-39 0)
(1.08132e-39 3.81941e-40 0)
(1.31936e-40 4.18398e-41 0)
(1.6571e-41 3.97549e-42 0)
(1.6706e-41 -4.0181e-42 0)
(1.33386e-40 -4.22405e-41 0)
(1.0946e-39 -3.85912e-40 0)
(8.59482e-39 -3.29545e-39 0)
(6.06654e-38 -2.7007e-38 0)
(4.1037e-37 -1.9877e-37 0)
(2.30082e-36 -1.37771e-36 0)
(1.26932e-35 -7.41967e-36 0)
(4.51192e-35 -3.43551e-35 0)
(1.85276e-34 -2.81384e-35 0)
(1.85276e-34 2.81384e-35 0)
(4.51192e-35 3.43551e-35 0)
(1.26932e-35 7.41966e-36 0)
(2.3008e-36 1.37769e-36 0)
(4.10241e-37 1.98626e-37 0)
(5.97984e-38 2.5946e-38 0)
(3.59406e-39 -3.97481e-39 0)
(-2.52944e-38 -4.2366e-38 0)
(-9.80735e-38 -2.30965e-37 0)
(-3.26741e-37 -8.92024e-37 0)
(2.11453e-38 -3.10096e-36 0)
(3.9483e-37 -5.92758e-37 0)
(4.80612e-37 -3.9061e-37 0)
(2.39784e-36 -2.37265e-36 0)
(6.60743e-36 -9.95608e-36 0)
(2.18766e-35 -5.97549e-36 0)
(1.7273e-35 1.88452e-35 0)
(-1.71428e-35 1.8773e-35 0)
(-2.12782e-35 -6.5262e-36 0)
(-3.69234e-36 -1.28113e-35 0)
(6.72128e-36 -1.47769e-35 0)
(2.85948e-35 -1.69656e-35 0)
(4.2043e-35 9.87671e-36 0)
(9.60236e-36 2.48194e-35 0)
(-7.63993e-36 -5.97386e-36 0)
(2.02661e-35 -1.5923e-35 0)
(2.24841e-35 6.53675e-36 0)
(6.72128e-36 1.00362e-35 0)
(2.41835e-36 2.38248e-36 0)
(4.98441e-37 4.80012e-37 0)
(9.72284e-38 7.38494e-38 0)
(1.52993e-38 1.05991e-38 0)
(2.26652e-39 1.35211e-39 0)
(2.9893e-40 1.64262e-40 0)
(3.74131e-41 1.85279e-41 0)
(4.80709e-42 1.79944e-42 0)
(4.84733e-42 -1.81949e-42 0)
(3.78395e-41 -1.87131e-41 0)
(3.02767e-40 -1.66059e-40 0)
(2.29945e-39 -1.36861e-39 0)
(1.55599e-38 -1.07444e-38 0)
(9.91873e-38 -7.50332e-38 0)
(5.11399e-37 -4.89222e-37 0)
(2.49968e-36 -2.4454e-36 0)
(7.11793e-36 -1.04396e-35 0)
(2.43732e-35 -8.41791e-36 0)
(2.43732e-35 8.41791e-36 0)
(7.11793e-36 1.04396e-35 0)
(2.49967e-36 2.44539e-36 0)
(5.11288e-37 4.89119e-37 0)
(9.83794e-38 7.41921e-38 0)
(1.00445e-38 4.50143e-39 0)
(-2.99422e-38 -4.20179e-38 0)
(-1.72551e-37 -2.59272e-37 0)
(-6.55502e-37 -1.43001e-36 0)
(-2.2197e-36 -5.65332e-36 0)
(1.21657e-37 -2.00489e-35 0)
(2.62273e-36 -3.82937e-36 0)
(7.29822e-38 -1.9818e-37 0)
(4.28895e-37 -6.08831e-37 0)
(8.36896e-37 -2.21954e-36 0)
(2.06183e-36 -1.26405e-36 0)
(1.57078e-36 4.1326e-36 0)
(-1.54138e-36 4.11546e-36 0)
(-1.93868e-36 -1.39319e-36 0)
(-3.10516e-37 -2.86453e-36 0)
(8.5614e-37 -3.32316e-36 0)
(2.91341e-36 -3.6987e-36 0)
(4.144e-36 2.16426e-36 0)
(1.36965e-36 5.38944e-36 0)
(-1.93225e-37 -1.25464e-36 0)
(2.10728e-36 -3.43784e-36 0)
(2.17923e-36 1.396e-36 0)
(8.56137e-37 2.20612e-36 0)
(4.23645e-37 5.61832e-37 0)
(9.79209e-38 1.19591e-37 0)
(2.07106e-38 1.933e-38 0)
(3.43004e-39 2.88451e-39 0)
(5.27824e-40 3.80414e-40 0)
(7.16335e-41 4.74369e-41 0)
(9.16847e-42 5.4702e-42 0)
(1.20124e-42 5.39858e-43 0)
(1.21153e-42 -5.46057e-43 0)
(9.27626e-42 -5.52663e-42 0)
(7.25892e-41 -4.79761e-41 0)
(5.35874e-40 -3.85274e-40 0)
(3.49227e-39 -2.92634e-39 0)
(2.11646e-38 -1.96618e-38 0)
(1.00805e-37 -1.22084e-37 0)
(4.40782e-37 -5.78182e-37 0)
(9.32286e-37 -2.30562e-36 0)
(2.49805e-36 -1.83244e-36 0)
(2.49805e-36 1.83244e-36 0)
(9.32277e-37 2.30561e-36 0)
(4.40702e-37 5.78119e-37 0)
(1.0016e-37 1.21537e-37 0)
(1.63949e-38 1.51575e-38 0)
(-2.95243e-38 -3.09651e-38 0)
(-1.95647e-37 -2.39189e-37 0)
(-1.07232e-36 -1.46263e-36 0)
(-4.16282e-36 -8.26319e-36 0)
(-1.44034e-35 -3.36616e-35 0)
(6.26578e-37 -1.2212e-34 0)
(1.65857e-35 -2.33449e-35 0)
(-1.4853e-37 -6.84257e-37 0)
(1.34336e-37 -4.41028e-37 0)
(1.26457e-37 -6.64366e-37 0)
(1.45644e-37 -3.02642e-37 0)
(8.97086e-38 8.15281e-37 0)
(-7.57326e-38 8.22035e-37 0)
(-9.74978e-38 -2.75236e-37 0)
(-5.14631e-39 -5.80924e-37 0)
(9.48754e-38 -6.75981e-37 0)
(2.13836e-37 -7.38781e-37 0)
(2.85914e-37 4.32719e-37 0)
(1.78396e-37 1.07303e-36 0)
(9.70067e-38 -2.44313e-37 0)
(1.70817e-37 -6.81348e-37 0)
(1.40808e-37 2.75532e-37 0)
(9.48681e-38 4.42297e-37 0)
(6.78295e-38 1.17623e-37 0)
(1.7288e-38 2.62367e-38 0)
(3.90132e-39 4.41047e-39 0)
(6.73626e-40 6.80648e-40 0)
(1.06904e-40 9.22695e-41 0)
(1.48597e-41 1.17661e-41 0)
(1.93797e-42 1.38203e-42 0)
(2.582e-43 1.38263e-43 0)
(2.60456e-43 -1.39891e-43 0)
(1.96137e-42 -1.39668e-42 0)
(1.50644e-41 -1.19042e-41 0)
(1.08602e-40 -9.34952e-41 0)
(6.86498e-40 -6.90997e-40 0)
(3.9929e-39 -4.49066e-39 0)
(1.78508e-38 -2.68223e-38 0)
(7.10273e-38 -1.21329e-37 0)
(1.0804e-37 -4.63938e-37 0)
(1.89993e-37 -3.6555e-37 0)
(1.89988e-37 3.65546e-37 0)
(1.07991e-37 4.63906e-37 0)
(7.0605e-38 1.21027e-37 0)
(1.43827e-38 2.41714e-38 0)
(-2.2012e-38 -1.76363e-38 0)
(-1.82286e-37 -1.68625e-37 0)
(-1.10863e-36 -1.22292e-36 0)
(-6.20238e-36 -7.67064e-36 0)
(-2.47718e-35 -4.4775e-35 0)
(-8.78523e-35 -1.89761e-34 0)
(2.68431e-36 -7.09793e-34 0)
(9.80982e-35 -1.35446e-34 0)
(-9.57545e-37 -3.96475e-36 0)
(5.14569e-37 -1.9242e-36 0)
(2.57367e-37 -1.4233e-36 0)
(1.66758e-37 -3.81984e-37 0)
(3.85725e-38 7.13571e-38 0)
(1.63632e-38 1.33862e-37 0)
(9.86649e-39 -5.04858e-38 0)
(4.67773e-39 -1.0504e-37 0)
(9.84272e-39 -1.22259e-37 0)
(5.29559e-39 -1.31491e-37 0)
(3.43994e-39 7.70628e-38 0)
(2.28982e-38 1.90411e-37 0)
(2.84121e-38 -4.24838e-38 0)
(8.62849e-39 -1.20404e-37 0)
(-8.26672e-40 4.85238e-38 0)
(9.80139e-39 7.89717e-38 0)
(1.05031e-38 2.17853e-38 0)
(2.88276e-39 5.04704e-39 0)
(6.83933e-40 8.7663e-40 0)
(1.21972e-40 1.39058e-40 0)
(1.98446e-41 1.92893e-41 0)
(2.81271e-42 2.50593e-42 0)
(3.72628e-43 2.98976e-43 0)
(5.03494e-44 3.02571e-44 0)
(5.07968e-44 -3.06208e-44 0)
(3.77229e-43 -3.02217e-43 0)
(2.85254e-42 -2.53615e-42 0)
(2.01705e-41 -1.95541e-41 0)
(1.24402e-40 -1.41257e-40 0)
(7.00874e-40 -8.93346e-40 0)
(2.98414e-39 -5.16621e-39 0)
(1.10594e-38 -2.25178e-38 0)
(1.196e-38 -8.31034e-38 0)
(6.54548e-39 -6.49836e-38 0)
(6.52286e-39 6.49687e-38 0)
(1.17252e-38 8.29692e-38 0)
(8.99977e-39 2.12509e-38 0)
(-1.41579e-38 -6.09875e-39 0)
(-1.29906e-37 -9.46804e-38 0)
(-9.3738e-37 -7.46363e-37 0)
(-5.81885e-36 -5.54003e-36 0)
(-3.3508e-35 -3.6003e-35 0)
(-1.38602e-34 -2.19333e-34 0)
(-5.08182e-34 -9.8056e-34 0)
(8.50347e-36 -3.79344e-33 0)
(5.48049e-34 -7.26118e-34 0)
(-4.79257e-36 -2.20679e-35 0)
(3.99262e-36 -1.05115e-35 0)
(1.71162e-36 -7.56519e-36 0)
(1.04696e-36 -1.86971e-36 0)
(2.56384e-37 -3.8432e-37 0)
(6.06974e-38 -4.4188e-38 0)
(1.33489e-38 -1.87646e-38 0)
(2.75504e-39 -1.91828e-38 0)
(1.22546e-39 -2.08971e-38 0)
(-1.7044e-39 -2.20468e-38 0)
(-3.12924e-39 1.2902e-38 0)
(2.97306e-39 3.1815e-38 0)
(5.40374e-39 -6.98701e-39 0)
(-2.87324e-40 -2.00479e-38 0)
(-2.15014e-39 8.06657e-39 0)
(1.00107e-39 1.32538e-38 0)
(1.5667e-39 3.75721e-39 0)
(4.53442e-40 8.97853e-40 0)
(1.11605e-40 1.60095e-40 0)
(2.04135e-41 2.59774e-41 0)
(3.38802e-42 3.67205e-42 0)
(4.88032e-43 4.84508e-43 0)
(6.55099e-44 5.85637e-44 0)
(8.95888e-45 5.98459e-45 0)
(9.03965e-45 -6.05784e-45 0)
(6.63345e-44 -5.92107e-44 0)
(4.95103e-43 -4.90485e-43 0)
(3.4452e-42 -3.72383e-42 0)
(2.08342e-41 -2.64018e-41 0)
(1.14488e-40 -1.6327e-40 0)
(4.70328e-40 -9.20044e-40 0)
(1.65681e-39 -3.89039e-39 0)
(1.33505e-39 -1.39846e-38 0)
(-1.08874e-39 -1.08784e-38 0)
(-1.18374e-39 1.08248e-38 0)
(3.38876e-40 1.34973e-38 0)
(-7.18709e-39 -7.71139e-40 0)
(-7.42777e-38 -4.1193e-38 0)
(-5.80048e-37 -3.64667e-37 0)
(-4.26184e-36 -2.92715e-36 0)
(-2.72155e-35 -2.25528e-35 0)
(-1.621e-34 -1.54038e-34 0)
(-6.99363e-34 -9.98587e-34 0)
(-2.66219e-33 -4.80636e-33 0)
(5.03528e-36 -1.96221e-32 0)
(2.74513e-33 -3.72129e-33 0)
(-1.73738e-35 -1.16782e-34 0)
(3.2156e-35 -5.30375e-35 0)
(1.18814e-35 -3.82386e-35 0)
(6.19839e-36 -9.17254e-36 0)
(1.44582e-36 -1.94402e-36 0)
(3.1302e-37 -3.14542e-37 0)
(5.31607e-38 -4.96125e-38 0)
(8.41735e-39 -9.28413e-39 0)
(1.23531e-39 -4.09952e-39 0)
(-3.06867e-40 -3.54803e-39 0)
(-7.2367e-40 2.01121e-39 0)
(3.96826e-40 4.97423e-39 0)
(8.73586e-40 -1.07737e-39 0)
(-1.64019e-40 -3.1255e-39 0)
(-4.71429e-40 1.25584e-39 0)
(1.07151e-40 2.08083e-39 0)
(2.27211e-40 6.03718e-40 0)
(6.81676e-41 1.47936e-40 0)
(1.72365e-41 2.69564e-41 0)
(3.21524e-42 4.45598e-42 0)
(5.42245e-43 6.39891e-43 0)
(7.91535e-44 8.55365e-44 0)
(1.07424e-44 1.04545e-44 0)
(1.48411e-45 1.07723e-45 0)
(1.49765e-45 -1.09062e-45 0)
(1.08797e-44 -1.05719e-44 0)
(8.03213e-44 -8.66126e-44 0)
(5.51591e-43 -6.49127e-43 0)
(3.28313e-42 -4.53084e-42 0)
(1.76943e-41 -2.7509e-41 0)
(7.07881e-41 -1.5174e-40 0)
(2.40725e-40 -6.26147e-40 0)
(1.53223e-40 -2.20167e-39 0)
(-3.58156e-40 -1.71514e-39 0)
(-7.09759e-40 1.57105e-39 0)
(-3.57744e-39 8.73504e-40 0)
(-3.33825e-38 -1.22688e-38 0)
(-2.89521e-37 -1.18546e-37 0)
(-2.29842e-36 -1.05556e-36 0)
(-1.73737e-35 -8.79507e-36 0)
(-1.14785e-34 -7.1615e-35 0)
(-7.13799e-34 -5.29314e-34 0)
(-3.2389e-33 -3.7611e-33 0)
(-1.31074e-32 -2.02243e-32 0)
(-1.22397e-34 -8.69197e-32 0)
(1.28599e-32 -1.66502e-32 0)
(-1.08759e-35 -5.57408e-34 0)
(2.55343e-34 -2.51103e-34 0)
(7.99203e-35 -1.84279e-34 0)
(3.3647e-35 -4.223e-35 0)
(7.28952e-36 -8.61566e-36 0)
(1.49485e-36 -1.35657e-36 0)
(2.42818e-37 -2.00277e-37 0)
(3.70212e-38 -2.6577e-38 0)
(4.99723e-39 -3.74104e-39 0)
(5.5782e-40 -8.88514e-40 0)
(-4.83088e-41 2.60286e-40 0)
(6.09341e-41 7.3623e-40 0)
(1.28815e-40 -1.5887e-40 0)
(-3.09673e-41 -4.64033e-40 0)
(-7.66719e-41 1.86227e-40 0)
(1.22105e-41 3.10705e-40 0)
(3.174e-41 9.18338e-41 0)
(9.76773e-42 2.29447e-41 0)
(2.52039e-42 4.25252e-42 0)
(4.77696e-43 7.13167e-43 0)
(8.16319e-44 1.03689e-43 0)
(1.20513e-44 1.40022e-44 0)
(1.65099e-45 1.7264e-45 0)
(2.30118e-46 1.79045e-46 0)
(2.32222e-46 -1.81301e-46 0)
(1.67213e-45 -1.7461e-45 0)
(1.22286e-44 -1.41817e-44 0)
(8.30212e-44 -1.05221e-43 0)
(4.87451e-43 -7.25512e-43 0)
(2.58231e-42 -4.34325e-42 0)
(1.00756e-41 -2.35683e-41 0)
(3.27958e-41 -9.55531e-41 0)
(8.78985e-42 -3.31572e-40 0)
(-1.66309e-40 -2.79996e-40 0)
(-1.16934e-39 -2.74032e-41 0)
(-1.07719e-38 -2.54658e-39 0)
(-9.87724e-38 -2.84057e-38 0)
(-8.68763e-37 -2.69147e-37 0)
(-7.07053e-36 -2.49382e-36 0)
(-5.51387e-35 -2.20852e-35 0)
(-3.78599e-34 -1.97872e-34 0)
(-2.46573e-33 -1.65913e-33 0)
(-1.18626e-32 -1.36145e-32 0)
(-5.11345e-32 -8.5068e-32 0)
(-8.60738e-34 -4.12131e-31 0)
(4.53108e-32 -7.46758e-32 0)
(-1.14479e-35 -3.81463e-36 0)
(-9.48234e-35 -2.43785e-35 0)
(-4.60653e-34 -1.56955e-34 0)
(-4.1926e-33 -1.15149e-34 0)
(-3.8165e-33 3.01298e-34 0)
(3.8165e-33 3.01298e-34 0)
(4.1926e-33 -1.15148e-34 0)
(4.60666e-34 -1.56951e-34 0)
(9.49967e-35 -2.43825e-35 0)
(1.20078e-35 -4.19841e-36 0)
(1.76332e-36 -5.3854e-37 0)
(2.09048e-37 -7.07373e-38 0)
(-3.14526e-42 -1.59277e-38 0)
(-2.0908e-37 -7.07466e-38 0)
(-1.76364e-36 -5.38633e-37 0)
(-1.20108e-35 -4.19931e-36 0)
(-9.50231e-35 -2.43906e-35 0)
(-4.6088e-34 -1.57022e-34 0)
(-4.19439e-33 -1.15695e-34 0)
(-3.82872e-33 2.97029e-34 0)
(3.71971e-33 2.76369e-34 0)
(3.71971e-33 -2.76369e-34 0)
(-3.82872e-33 -2.97029e-34 0)
(-4.19439e-33 1.15695e-34 0)
(-4.6088e-34 1.57022e-34 0)
(-9.50234e-35 2.43905e-35 0)
(-1.20137e-35 4.19841e-36 0)
(-1.79033e-36 5.30494e-37 0)
(-4.26482e-37 -7.98217e-40 0)
(-1.81323e-36 -5.3764e-37 0)
(-1.21992e-35 -4.2602e-36 0)
(-9.65722e-35 -2.48582e-35 0)
(-4.71098e-34 -1.60674e-34 0)
(-4.27717e-33 -1.35808e-34 0)
(-4.1926e-33 1.65006e-34 0)
(-2.61046e-39 3.2244e-34 0)
(4.19258e-33 1.65e-34 0)
(4.27698e-33 -1.35861e-34 0)
(4.69251e-34 -1.60789e-34 0)
(8.78451e-35 -2.21015e-35 0)
(-5.00961e-36 1.72196e-36 0)
(-3.65894e-35 1.31175e-35 0)
(-1.69609e-34 8.42454e-35 0)
(-9.6532e-34 6.1534e-35 0)
(-8.27704e-34 -1.61338e-34 0)
(8.27704e-34 -1.61338e-34 0)
(9.65321e-34 6.15339e-35 0)
(1.69617e-34 8.42448e-35 0)
(3.66839e-35 1.31361e-35 0)
(5.41989e-36 2.12852e-36 0)
(8.31626e-37 2.59381e-37 0)
(1.05724e-37 3.19483e-38 0)
(-1.82561e-42 6.82618e-39 0)
(-1.05742e-37 3.19518e-38 0)
(-8.31802e-37 2.59418e-37 0)
(-5.42147e-36 2.12888e-36 0)
(-3.66977e-35 1.31396e-35 0)
(-1.69726e-34 8.42767e-35 0)
(-9.66167e-34 6.17967e-35 0)
(-8.33233e-34 -1.59178e-34 0)
(7.90175e-34 -1.47939e-34 0)
(7.90175e-34 1.47939e-34 0)
(-8.33233e-34 1.59178e-34 0)
(-9.66167e-34 -6.17967e-35 0)
(-1.69726e-34 -8.42767e-35 0)
(-3.66979e-35 -1.31396e-35 0)
(-5.42307e-36 -2.12851e-36 0)
(-8.45777e-37 -2.55936e-37 0)
(-2.16005e-37 3.26893e-40 0)
(-8.57681e-37 2.59015e-37 0)
(-5.51653e-36 2.15665e-36 0)
(-3.74208e-35 1.33669e-35 0)
(-1.74301e-34 8.61425e-35 0)
(-9.97322e-34 7.27724e-35 0)
(-9.65321e-34 -8.83317e-35 0)
(-1.51878e-39 -1.7281e-34 0)
(9.65307e-34 -8.83294e-35 0)
(9.97216e-34 7.2785e-35 0)
(1.73383e-34 8.60146e-35 0)
(3.28217e-35 9.85401e-36 0)
(-1.60219e-36 8.09227e-37 0)
(-9.9039e-36 5.74843e-36 0)
(-3.61434e-35 2.89796e-35 0)
(-1.60375e-34 1.91243e-35 0)
(-1.32733e-34 -5.50236e-35 0)
(1.32733e-34 -5.50236e-35 0)
(1.60375e-34 1.91242e-35 0)
(3.61448e-35 2.8979e-35 0)
(9.92415e-36 5.75615e-36 0)
(1.67062e-36 1.00931e-36 0)
(2.83507e-37 1.35368e-37 0)
(3.85253e-38 1.75603e-38 0)
(-7.87408e-43 3.96261e-39 0)
(-3.85331e-38 1.75626e-38 0)
(-2.83579e-37 1.35391e-37 0)
(-1.67126e-36 1.00953e-36 0)
(-9.92947e-36 5.75815e-36 0)
(-3.61846e-35 2.89966e-35 0)
(-1.60664e-34 1.92616e-35 0)
(-1.34443e-34 -5.39967e-35 0)
(1.2252e-34 -4.91301e-35 0)
(1.2252e-34 4.91301e-35 0)
(-1.34443e-34 5.39967e-35 0)
(-1.60664e-34 -1.92616e-35 0)
(-3.61846e-35 -2.89966e-35 0)
(-9.92954e-36 -5.75813e-36 0)
(-1.6719e-36 -1.00931e-36 0)
(-2.8896e-37 -1.33366e-37 0)
(-7.8871e-38 1.96082e-40 0)
(-2.93507e-37 1.35147e-37 0)
(-1.70573e-36 1.02465e-36 0)
(-1.01733e-35 5.87591e-36 0)
(-3.75663e-35 2.98686e-35 0)
(-1.68878e-34 2.39908e-35 0)
(-1.60375e-34 -3.09112e-35 0)
(-3.89154e-40 -6.00116e-35 0)
(1.60372e-34 -3.09097e-35 0)
(1.68856e-34 2.39992e-35 0)
(3.73861e-35 2.98216e-35 0)
(9.24463e-36 4.32021e-36 0)
(-3.6841e-37 2.85437e-37 0)
(-1.95811e-36 1.89144e-36 0)
(-5.62083e-36 8.77607e-36 0)
(-2.05458e-35 5.56767e-36 0)
(-1.65729e-35 -1.66569e-35 0)
(1.65729e-35 -1.66569e-35 0)
(2.05458e-35 5.56765e-36 0)
(5.62088e-36 8.77601e-36 0)
(1.96056e-36 1.89525e-36 0)
(3.72569e-37 3.58983e-37 0)
(6.87547e-38 5.12163e-38 0)
(9.8965e-39 7.01249e-39 0)
(-2.32154e-43 1.65002e-39 0)
(-9.89876e-39 7.01351e-39 0)
(-6.87753e-38 5.12264e-38 0)
(-3.72745e-37 3.59078e-37 0)
(-1.96199e-36 1.89608e-36 0)
(-5.63113e-36 8.78303e-36 0)
(-2.0616e-35 5.61969e-36 0)
(-1.69557e-35 -1.6291e-35 0)
(1.45421e-35 -1.47097e-35 0)
(1.45421e-35 1.47097e-35 0)
(-1.69557e-35 1.6291e-35 0)
(-2.0616e-35 -5.61969e-36 0)
(-5.63113e-36 -8.78303e-36 0)
(-1.96201e-36 -1.89607e-36 0)
(-3.72923e-37 -3.58982e-37 0)
(-7.02202e-38 -5.03823e-38 0)
(-2.02971e-38 8.42863e-41 0)
(-7.14324e-38 5.11209e-38 0)
(-3.81564e-37 3.65066e-37 0)
(-2.02054e-36 1.94027e-36 0)
(-5.9335e-36 9.08997e-36 0)
(-2.21938e-35 7.14894e-36 0)
(-2.05458e-35 -9.46222e-36 0)
(-6.50662e-41 -1.8284e-35 0)
(2.05453e-35 -9.46184e-36 0)
(2.21914e-35 7.15049e-36 0)
(5.91484e-36 9.06638e-36 0)
(1.90297e-36 1.40732e-36 0)
(-7.59028e-38 7.04808e-38 0)
(-3.47149e-37 4.46554e-37 0)
(-7.16038e-37 1.93217e-36 0)
(-1.97817e-36 1.1805e-36 0)
(-1.54833e-36 -3.6657e-36 0)
(1.54833e-36 -3.6657e-36 0)
(1.97816e-36 1.1805e-36 0)
(7.15972e-37 1.9322e-36 0)
(3.47057e-37 4.47761e-37 0)
(7.36668e-38 8.96569e-38 0)
(1.47227e-38 1.34415e-38 0)
(2.22465e-39 1.91442e-39 0)
(-5.88605e-44 4.65203e-40 0)
(-2.22521e-39 1.91472e-39 0)
(-1.47278e-38 1.34445e-38 0)
(-7.3709e-38 8.96845e-38 0)
(-3.47391e-37 4.47997e-37 0)
(-7.18281e-37 1.93411e-36 0)
(-1.99322e-36 1.19417e-36 0)
(-1.62431e-36 -3.57413e-36 0)
(1.18622e-36 -3.20426e-36 0)
(1.18622e-36 3.20426e-36 0)
(-1.62431e-36 3.57413e-36 0)
(-1.99322e-36 -1.19417e-36 0)
(-7.18281e-37 -1.93411e-36 0)
(-3.47396e-37 -4.47994e-37 0)
(-7.37517e-38 -8.96566e-38 0)
(-1.50657e-38 -1.32062e-38 0)
(-4.57031e-39 2.43142e-41 0)
(-1.53475e-38 1.34139e-38 0)
(-7.5684e-38 9.13084e-38 0)
(-3.59815e-37 4.59518e-37 0)
(-7.76887e-37 2.01009e-36 0)
(-2.26431e-36 1.55036e-36 0)
(-1.97816e-36 -2.10337e-36 0)
(-5.06964e-42 -4.04752e-36 0)
(1.97815e-36 -2.10331e-36 0)
(2.26451e-36 1.55042e-36 0)
(7.78296e-37 2.00255e-36 0)
(3.57089e-37 3.27684e-37 0)
(-1.39463e-38 1.5324e-38 0)
(-5.61947e-38 9.34296e-38 0)
(-7.9185e-38 3.87693e-37 0)
(-1.24138e-37 2.31362e-37 0)
(-9.03793e-38 -7.36252e-37 0)
(9.03794e-38 -7.36251e-37 0)
(1.24138e-37 2.31367e-37 0)
(7.91681e-38 3.87727e-37 0)
(5.60849e-38 9.38555e-38 0)
(1.30738e-38 1.9718e-38 0)
(2.78468e-39 3.07463e-39 0)
(4.37764e-40 4.53172e-40 0)
(-1.2809e-44 1.13078e-40 0)
(-4.37885e-40 4.53251e-40 0)
(-2.78575e-39 3.07538e-39 0)
(-1.30826e-38 1.97248e-38 0)
(-5.61526e-38 9.39128e-38 0)
(-7.96233e-38 3.8818e-37 0)
(-1.26992e-37 2.34498e-37 0)
(-1.03908e-37 -7.1608e-37 0)
(3.1441e-38 -6.39265e-37 0)
(3.1441e-38 6.39265e-37 0)
(-1.03908e-37 7.1608e-37 0)
(-1.26992e-37 -2.34498e-37 0)
(-7.96234e-38 -3.8818e-37 0)
(-5.61537e-38 -9.3912e-38 0)
(-1.30914e-38 -1.97179e-38 0)
(-2.85444e-39 -3.01742e-39 0)
(-9.00665e-40 6.0278e-42 0)
(-2.9114e-39 3.06776e-39 0)
(-1.347e-38 2.01071e-38 0)
(-5.84842e-38 9.65327e-38 0)
(-8.98438e-38 4.04767e-37 0)
(-1.69547e-37 3.08182e-37 0)
(-1.24138e-37 -4.2534e-37 0)
(6.93785e-43 -8.15795e-37 0)
(1.2415e-37 -4.25337e-37 0)
(1.69698e-37 3.08107e-37 0)
(9.08888e-38 4.02688e-37 0)
(6.1016e-38 6.76395e-38 0)
(-1.88214e-39 2.48399e-39 0)
(-8.68346e-39 1.65701e-38 0)
(-8.05909e-39 6.91348e-38 0)
(1.80735e-39 4.0449e-38 0)
(2.95012e-39 -1.31671e-37 0)
(-2.94752e-39 -1.31668e-37 0)
(-1.79344e-39 4.0471e-38 0)
(8.13376e-39 6.92779e-38 0)
(8.74792e-39 1.74016e-38 0)
(2.1883e-39 3.80055e-39 0)
(4.89696e-40 6.12369e-40 0)
(7.93814e-41 9.282e-41 0)
(-2.52421e-45 2.36794e-41 0)
(-7.94051e-41 9.28372e-41 0)
(-4.89903e-40 6.12532e-40 0)
(-2.18996e-39 3.80202e-39 0)
(-8.76053e-39 1.74136e-38 0)
(-8.21645e-39 6.93707e-38 0)
(1.29097e-39 4.10953e-38 0)
(6.76807e-40 -1.27775e-37 0)
(-1.21982e-38 -1.13642e-37 0)
(-1.21982e-38 1.13642e-37 0)
(6.76807e-40 1.27775e-37 0)
(1.29097e-39 -4.10953e-38 0)
(-8.21647e-39 -6.93707e-38 0)
(-8.76074e-39 -1.74134e-38 0)
(-2.19165e-39 -3.80054e-39 0)
(-5.02691e-40 -6.00385e-40 0)
(-1.63527e-40 1.28301e-42 0)
(-5.13246e-40 6.10905e-40 0)
(-2.26004e-39 3.87993e-39 0)
(-9.16795e-39 1.79328e-38 0)
(-9.90228e-39 7.2547e-38 0)
(-5.18595e-39 5.46035e-38 0)
(1.79351e-39 -7.65226e-38 0)
(4.15816e-43 -1.46343e-37 0)
(-1.78894e-39 -7.65241e-38 0)
(5.22924e-39 5.45732e-38 0)
(1.01921e-38 7.20745e-38 0)
(1.00126e-38 1.23641e-38 0)
(8.72219e-39 1.15747e-40 0)
(4.48848e-40 -2.42368e-39 0)
(-1.3107e-40 1.07013e-38 0)
(2.26937e-39 6.55259e-39 0)
(1.96383e-39 -2.21472e-38 0)
(-1.94571e-39 -2.21335e-38 0)
(-2.15959e-39 6.68689e-39 0)
(8.2248e-40 1.16324e-38 0)
(1.31131e-39 3.00356e-39 0)
(3.45086e-40 6.7724e-40 0)
(8.00857e-41 1.12025e-40 0)
(1.3299e-41 1.73775e-41 0)
(-4.53103e-46 4.51433e-42 0)
(-1.33032e-41 1.73809e-41 0)
(-8.01221e-41 1.12057e-40 0)
(-3.45375e-40 6.77524e-40 0)
(-1.31346e-39 3.00585e-39 0)
(-8.36332e-40 1.16498e-38 0)
(2.07752e-39 6.80132e-39 0)
(1.58868e-39 -2.14373e-38 0)
(-3.34122e-39 -1.90141e-38 0)
(-3.34122e-39 1.90141e-38 0)
(1.58868e-39 2.14373e-38 0)
(2.07752e-39 -6.80132e-39 0)
(-8.36336e-40 -1.16498e-38 0)
(-1.3135e-39 -3.00582e-39 0)
(-3.45668e-40 -6.77237e-40 0)
(-8.23105e-41 -1.0974e-40 0)
(-2.74253e-41 2.47947e-43 0)
(-8.41098e-41 1.11742e-40 0)
(-3.57092e-40 6.92048e-40 0)
(-1.37974e-39 3.10043e-39 0)
(-1.09915e-39 1.22128e-38 0)
(1.12518e-39 9.11027e-39 0)
(2.15981e-39 -1.29227e-38 0)
(1.12156e-43 -2.46541e-38 0)
(-2.15871e-39 -1.29234e-38 0)
(-1.11591e-39 9.10219e-39 0)
(1.159e-39 1.21168e-38 0)
(1.56264e-39 2.10649e-39 0)
(1.50281e-37 -4.21118e-38 0)
(2.0334e-38 -3.31534e-38 0)
(5.60114e-39 -3.44205e-39 0)
(1.24434e-39 3.693e-40 0)
(5.03924e-40 -3.54934e-39 0)
(-3.89434e-40 -3.48614e-39 0)
(-4.62148e-40 1.03467e-39 0)
(8.69409e-41 1.82692e-39 0)
(1.90755e-40 4.82947e-40 0)
(5.19649e-41 1.11735e-40 0)
(1.23884e-41 1.88884e-41 0)
(2.09619e-42 2.98608e-42 0)
(-7.51761e-47 7.87581e-43 0)
(-2.09688e-42 2.9867e-42 0)
(-1.23943e-41 1.88941e-41 0)
(-5.20109e-41 1.11786e-40 0)
(-1.91091e-40 4.83351e-40 0)
(-8.90151e-41 1.82997e-39 0)
(4.50603e-40 1.05459e-39 0)
(3.46684e-40 -3.36452e-39 0)
(-6.04323e-40 -2.97701e-39 0)
(-6.04323e-40 2.97701e-39 0)
(3.46684e-40 3.36452e-39 0)
(4.50603e-40 -1.05459e-39 0)
(-8.90158e-41 -1.82997e-39 0)
(-1.91097e-40 -4.83345e-40 0)
(-5.20585e-41 -1.11735e-40 0)
(-1.27452e-41 -1.84896e-41 0)
(-4.32665e-42 4.37516e-44 0)
(-1.30328e-41 1.88383e-41 0)
(-5.38546e-41 1.14273e-40 0)
(-2.01301e-40 4.99241e-40 0)
(-1.28241e-40 1.92242e-39 0)
(3.14013e-40 1.42282e-39 0)
(4.63346e-40 -2.03977e-39 0)
(2.36416e-44 -3.88342e-39 0)
(-4.63129e-40 -2.03994e-39 0)
(-3.12306e-40 1.42109e-39 0)
(1.38927e-40 1.90492e-39 0)
(2.34575e-40 3.3489e-40 0)
(2.03756e-36 2.98976e-37 0)
(2.74472e-37 -1.8041e-37 0)
(4.15106e-38 -2.69314e-38 0)
(4.82668e-39 -2.79487e-39 0)
(5.96914e-40 -8.07392e-40 0)
(-1.01228e-41 -5.46166e-40 0)
(-6.98223e-41 1.50524e-40 0)
(1.02294e-41 2.72688e-40 0)
(2.6735e-41 7.34896e-41 0)
(7.4578e-42 1.73465e-41 0)
(1.81387e-42 2.9828e-42 0)
(3.11617e-43 4.78548e-43 0)
(-1.00933e-47 1.27731e-43 0)
(-3.11703e-43 4.78658e-43 0)
(-1.8145e-42 2.98384e-42 0)
(-7.4614e-42 1.73559e-41 0)
(-2.67449e-41 7.35699e-41 0)
(-1.00756e-41 2.73358e-40 0)
(7.31947e-41 1.55849e-40 0)
(5.62517e-41 -5.02233e-40 0)
(-9.25912e-41 -4.43507e-40 0)
(-9.25912e-41 4.43507e-40 0)
(5.62517e-41 5.02233e-40 0)
(7.31947e-41 -1.55849e-40 0)
(-1.00757e-41 -2.73358e-40 0)
(-2.67458e-41 -7.3569e-41 0)
(-7.46866e-42 -1.73476e-41 0)
(-1.86741e-42 -2.9182e-42 0)
(-6.43646e-43 7.15876e-45 0)
(-1.91065e-42 2.97468e-42 0)
(-7.7351e-42 1.77533e-41 0)
(-2.82345e-41 7.60723e-41 0)
(-1.56634e-41 2.87658e-40 0)
(5.42821e-41 2.11528e-40 0)
(7.50618e-41 -3.05906e-40 0)
(4.28877e-45 -5.81414e-40 0)
(-7.50242e-41 -3.05939e-40 0)
(-5.40007e-41 2.11206e-40 0)
(1.73747e-41 2.84716e-40 0)
(3.35848e-41 5.05074e-41 0)
(6.9144e-34 -3.04525e-33 0)
(2.1994e-33 -1.15617e-33 0)
(5.96165e-34 -8.10838e-34 0)
(2.05551e-34 -1.76288e-34 0)
(4.04813e-35 -3.41654e-35 0)
(7.78588e-36 -5.1696e-36 0)
(1.20821e-36 -7.37017e-37 0)
(1.78359e-37 -9.38885e-38 0)
(2.3435e-38 -1.14632e-38 0)
(2.92032e-39 -1.344e-39 0)
(3.25824e-40 -1.09687e-40 0)
(4.24475e-41 6.05398e-41 0)
(1.67136e-41 -1.72827e-41 0)
(-3.06022e-42 -4.69642e-41 0)
(-8.02189e-42 1.87993e-41 0)
(1.04376e-42 3.15316e-41 0)
(3.10282e-42 9.48824e-42 0)
(9.71953e-43 2.43065e-42 0)
(2.54454e-43 4.59798e-43 0)
(4.87975e-44 7.86485e-44 0)
(8.42001e-45 1.16282e-44 0)
(1.25348e-45 1.59415e-45 0)
(1.72906e-46 1.99132e-46 0)
(2.42523e-47 2.08673e-47 0)
(2.44296e-47 -2.11323e-47 0)
(1.74463e-46 -2.01407e-46 0)
(1.26308e-45 -1.61446e-45 0)
(8.44811e-45 -1.17967e-44 0)
(4.83359e-44 -7.99505e-44 0)
(2.42797e-43 -4.68699e-43 0)
(7.89942e-43 -2.48421e-42 0)
(7.6053e-43 -9.71444e-42 0)
(-2.63672e-41 -3.17739e-41 0)
(-3.06348e-40 -7.28522e-42 0)
(-3.07674e-39 2.16922e-40 0)
(-3.03239e-38 1.91183e-39 0)
(-2.83578e-37 1.72849e-38 0)
(-2.5615e-36 1.39268e-37 0)
(-2.1477e-35 8.40053e-37 0)
(-1.74505e-34 -2.87517e-37 0)
(-1.25274e-33 -1.14544e-34 0)
(-8.75659e-33 -2.32418e-33 0)
(-4.53223e-32 -2.99348e-32 0)
(-2.32019e-31 -2.68986e-31 0)
(1.54052e-33 -1.39271e-30 0)
(2.32117e-31 -2.68586e-31 0)
(1.41644e-32 -1.5452e-32 0)
(2.55226e-32 -6.35909e-33 0)
(5.45297e-33 -4.61258e-33 0)
(1.37772e-33 -8.73928e-34 0)
(2.36428e-34 -1.60778e-34 0)
(4.07878e-35 -2.30455e-35 0)
(5.92329e-36 -3.19017e-36 0)
(8.31577e-37 -3.94757e-37 0)
(1.0546e-37 -4.71008e-38 0)
(1.28218e-38 -5.23946e-39 0)
(1.45177e-39 -5.57665e-40 0)
(1.58288e-40 -5.00899e-41 0)
(1.72839e-41 -6.99837e-42 0)
(1.32473e-42 -4.76707e-42 0)
(-5.04517e-43 1.65576e-42 0)
(9.16088e-44 2.86543e-42 0)
(2.48208e-43 8.73325e-43 0)
(7.86497e-44 2.25947e-43 0)
(2.09166e-44 4.31394e-44 0)
(4.06465e-45 7.43047e-45 0)
(7.10129e-46 1.10546e-45 0)
(1.06856e-46 1.52254e-46 0)
(1.48817e-47 1.90952e-47 0)
(2.10885e-48 2.00719e-48 0)
(2.15597e-48 -2.01939e-48 0)
(1.54774e-47 -1.91397e-47 0)
(1.13747e-46 -1.51829e-46 0)
(7.90177e-46 -1.0901e-45 0)
(4.99105e-45 -7.14807e-45 0)
(3.15947e-44 -3.88889e-44 0)
(1.9969e-43 -1.68968e-43 0)
(1.59568e-42 -1.63655e-43 0)
(1.46381e-41 5.45516e-42 0)
(1.51895e-40 9.11083e-41 0)
(1.53158e-39 9.92588e-40 0)
(1.48141e-38 9.98708e-39 0)
(1.35692e-37 9.53948e-38 0)
(1.19175e-36 8.21519e-37 0)
(9.73546e-36 5.88893e-36 0)
(7.60154e-35 1.9502e-35 0)
(5.2798e-34 -3.39236e-34 0)
(3.46629e-33 -9.80428e-33 0)
(1.72715e-32 -1.479e-31 0)
(7.73717e-32 -1.6248e-30 0)
(2.51297e-32 -1.25851e-29 0)
(-4.7007e-32 -1.62926e-30 0)
(1.71366e-31 -1.09487e-31 0)
(2.13234e-31 -1.59524e-32 0)
(3.1959e-32 -1.6056e-33 0)
(7.58561e-33 -1.22286e-34 0)
(1.17327e-33 -6.61503e-36 0)
(1.94877e-34 -1.79969e-37 0)
(2.7033e-35 1.69083e-38 0)
(3.70219e-36 3.68229e-39 0)
(4.5758e-37 4.77555e-40 0)
(5.46869e-38 5.1368e-41 0)
(6.0937e-39 5.44191e-42 0)
(6.54055e-40 1.05367e-42 0)
(6.66287e-41 -7.1112e-44 0)
(6.50461e-42 -3.44082e-43 0)
(5.5926e-43 1.39944e-43 0)
(6.17585e-44 2.36271e-43 0)
(2.49437e-44 7.28136e-44 0)
(6.86278e-45 1.9084e-44 0)
(1.76604e-45 3.68583e-45 0)
(3.42061e-46 6.41502e-46 0)
(5.98897e-47 9.63171e-47 0)
(9.04887e-48 1.33716e-47 0)
(1.26588e-48 1.6888e-48 0)
(1.90262e-49 1.78336e-49 0)
(3.26783e-49 -1.81666e-49 0)
(3.25574e-48 -1.72186e-48 0)
(3.53018e-47 -1.37286e-47 0)
(3.9726e-46 -1.00176e-46 0)
(4.55518e-45 -6.83814e-46 0)
(5.28939e-44 -4.15338e-45 0)
(6.07574e-43 -2.43207e-44 0)
(6.86429e-42 -1.31229e-43 0)
(7.51e-41 -8.84842e-43 0)
(7.96105e-40 -7.1581e-42 0)
(8.08176e-39 -7.35843e-41 0)
(7.90736e-38 -7.37926e-40 0)
(7.3338e-37 -6.87472e-39 0)
(6.54691e-36 -5.42107e-38 0)
(5.43929e-35 -2.68918e-37 0)
(4.35249e-34 2.10329e-36 0)
(3.09858e-33 8.86502e-35 0)
(2.12414e-32 1.68318e-33 0)
(1.10368e-31 2.26388e-32 0)
(5.51061e-31 2.30488e-31 0)
(2.20708e-31 1.65882e-30 0)
(-2.97445e-31 2.30029e-31 0)
(2.10743e-32 -1.06559e-31 0)
(2.19239e-32 -1.22884e-32 0)
(4.76147e-33 2.6563e-33 0)
(1.22837e-33 7.18106e-34 0)
(2.1485e-34 1.5133e-34 0)
(3.76643e-35 2.26397e-35 0)
(5.53441e-36 3.18765e-36 0)
(7.84211e-37 3.96655e-37 0)
(1.00161e-37 4.73989e-38 0)
(1.22479e-38 5.26925e-39 0)
(1.39413e-39 5.64e-40 0)
(1.52099e-40 5.72789e-41 0)
(1.57161e-41 5.59188e-42 0)
(1.55838e-42 4.96374e-43 0)
(1.44032e-43 5.90182e-44 0)
(1.40408e-44 2.36168e-44 0)
(2.74428e-45 6.40345e-45 0)
(6.03966e-46 1.62618e-45 0)
(1.44412e-46 3.12935e-46 0)