/*--------------------------------*- C++ -*----------------------------------*\
| =========                 |                                                 |
| \\      /  F ield         | OpenFOAM: The Open Source CFD Toolbox           |
|  \\    /   O peration     | Version:  2.4.0                                 |
|   \\  /    A nd           | Web:      www.OpenFOAM.org                      |
|    \\/     M anipulation  |                                                 |
\*---------------------------------------------------------------------------*/
FoamFile
{
    version     2.0;
    format      ascii;
    class       surfaceScalarField;
    location    "0.4";
    object      phi;
}
// * * * * * * * * * * * * * * * * * * * * * * * * * * * * * * * * * * * * * //

dimensions      [0 3 -1 0 0 0 0];

internalField   nonuniform List<scalar> 
3782
(
-1.36355e-40
2.74912e-38
-1.51773e-40
2.72284e-39
-3.58625e-41
3.98768e-40
-2.42594e-40
3.43081e-41
-3.57017e-39
-2.6247e-41
-3.41497e-38
-3.44862e-39
-4.54461e-37
-1.29124e-37
-1.92976e-36
-3.49092e-36
-2.35472e-35
-1.21293e-34
-1.35069e-34
-1.70744e-36
-7.52407e-35
2.33288e-35
-8.31711e-33
-2.31451e-36
8.48701e-33
-4.78993e-35
8.30252e-35
-1.36021e-36
1.3915e-34
2.39901e-35
2.60377e-35
1.82675e-36
2.69931e-35
-1.0056e-38
1.26336e-34
-1.78329e-36
-1.02028e-34
-2.46935e-35
9.32239e-33
3.25506e-35
-1.97941e-32
8.28155e-35
-2.41854e-34
-2.81217e-35
-4.56037e-34
-8.39652e-35
9.91732e-33
2.98779e-35
-2.0952e-32
8.56833e-35
-2.72181e-34
-5.84846e-35
1.0534e-32
-6.09428e-35
-1.08579e-32
2.5466e-35
1.09374e-32
-8.09116e-37
-1.13962e-32
-1.41707e-34
-1.39609e-34
-5.44097e-36
-1.85707e-34
-3.21792e-35
-3.24076e-35
-2.45856e-36
-2.54446e-36
-2.97796e-37
-2.49976e-36
3.19912e-40
-3.33432e-35
3.08723e-37
-1.66523e-34
2.37262e-36
1.32753e-34
3.25633e-35
-1.22846e-32
-4.26004e-35
2.60132e-32
-1.09166e-34
4.94065e-34
3.42296e-35
4.64206e-34
7.55393e-35
5.53942e-36
3.11329e-37
-1.71156e-39
2.58378e-36
-1.75054e-38
2.78292e-35
-2.00731e-37
-1.49117e-36
1.52665e-34
2.91856e-38
-1.88365e-39
2.35848e-37
-1.92391e-38
2.2713e-36
-2.19441e-37
-1.6258e-36
1.20146e-35
4.02278e-39
-1.85801e-40
2.85141e-38
-1.97406e-39
2.37623e-37
-2.13366e-38
-1.51862e-37
7.55725e-37
3.0457e-40
1.35251e-40
2.0392e-39
-8.33369e-41
1.53592e-38
-2.80154e-39
-1.84838e-38
3.63576e-38
-6.57929e-42
2.3782e-39
1.3432e-40
2.75575e-39
1.24361e-39
1.47833e-40
-1.31437e-39
2.25813e-39
-2.13547e-39
2.00717e-38
-7.09538e-40
2.37773e-38
-2.16878e-40
3.00167e-39
3.01733e-40
8.44979e-41
-7.47507e-38
2.49317e-37
-1.52254e-38
2.93356e-37
-4.60523e-39
3.23781e-38
4.31031e-39
-5.75275e-40
-1.93705e-36
5.97483e-38
-2.46589e-37
2.48992e-37
-4.46492e-38
2.75985e-38
3.74233e-39
-4.89513e-39
-4.31673e-36
-2.65183e-36
-3.13891e-36
-5.69021e-37
-5.45855e-37
-5.43051e-38
-6.26429e-39
-5.36215e-38
-3.13789e-38
-1.35202e-35
-6.85696e-39
-1.2301e-36
-1.18968e-38
-8.30806e-38
-7.17808e-39
-1.71643e-39
2.4575e-35
-1.51256e-34
2.66311e-36
-7.76671e-36
3.49453e-37
-2.94962e-37
-6.25182e-39
3.18079e-38
-2.46401e-36
-1.37244e-34
-3.02767e-37
-6.92695e-36
-4.14445e-38
-2.57971e-37
-4.97607e-39
-4.00511e-39
-5.03448e-35
1.46418e-34
-5.48245e-36
7.40965e-36
-7.26015e-37
2.77029e-37
5.45457e-39
-6.65298e-38
-1.46187e-36
1.54776e-34
-1.92507e-37
7.94165e-36
-2.66225e-38
3.00615e-37
6.15566e-39
-2.62893e-39
2.52105e-35
1.36301e-35
2.74078e-36
9.67595e-37
3.62387e-37
5.27473e-38
3.01606e-39
3.31626e-38
1.95195e-36
2.64934e-36
2.45607e-37
3.26676e-37
3.35749e-38
2.72395e-38
2.56905e-39
3.26005e-39
-1.0602e-38
2.71547e-36
-1.18777e-39
3.30935e-37
-1.58604e-40
2.72878e-38
2.55651e-39
-1.39492e-41
-1.90393e-36
1.2252e-35
-2.37953e-37
7.01559e-37
-3.19515e-38
2.67648e-38
2.97205e-40
-3.07194e-39
-2.5904e-35
1.55977e-34
-2.76902e-36
7.46257e-36
-3.64001e-37
2.46043e-37
4.01131e-40
-3.30174e-38
3.42875e-35
-3.74125e-35
3.81146e-36
-2.55174e-36
5.07312e-37
-1.34959e-37
-7.38823e-39
4.69262e-38
8.70382e-35
-5.26853e-34
9.47261e-36
-2.71129e-35
1.25377e-36
-1.03816e-36
-2.31636e-38
1.14838e-37
-2.95525e-35
-3.6165e-34
-3.21301e-36
-1.89911e-35
-4.2471e-37
-7.5321e-37
-2.00913e-38
-3.88599e-38
-8.82318e-35
1.32325e-34
-9.58739e-36
5.40221e-36
-1.26749e-36
1.13576e-37
-9.09998e-39
-1.15964e-37
3.13964e-35
-4.24801e-35
3.41188e-36
-3.07213e-36
4.50638e-37
-1.74399e-37
-1.08268e-38
4.12109e-38
9.00041e-35
-5.47289e-34
9.74568e-36
-2.80566e-35
1.2877e-36
-1.07198e-36
-2.39314e-38
1.17638e-37
-6.14315e-35
-2.01108e-34
-6.64936e-36
-1.06601e-35
-8.79273e-37
-4.24307e-37
-1.11791e-38
-8.03503e-38
-6.40868e-35
1.58953e-34
-7.01552e-36
7.4922e-36
-9.29983e-37
2.43858e-37
3.26581e-40
-8.54184e-38
2.67746e-35
7.97009e-36
2.82376e-36
4.77503e-37
3.67505e-37
1.69503e-38
9.96331e-40
3.29843e-38
1.70582e-36
-1.54635e-35
2.08237e-37
-6.12427e-37
1.17807e-38
-4.49539e-39
3.80196e-39
2.91952e-40
2.77702e-35
-2.1039e-34
-8.07562e-37
-1.1379e-35
-2.93972e-37
-4.74975e-37
-1.67597e-38
-3.21295e-38
-3.23332e-36
-2.08047e-34
-4.02891e-37
-1.13023e-35
-7.05748e-38
-4.75802e-37
-1.7353e-38
-7.62028e-39
-3.37352e-35
-1.82553e-35
-3.68441e-36
-1.34157e-36
-4.91632e-37
-7.66493e-38
-4.84536e-39
-4.52851e-38
-2.62542e-36
-3.27801e-36
-3.3157e-37
-4.05913e-37
-4.57253e-38
-3.38657e-38
-3.21798e-39
-4.46648e-39
-3.19693e-37
-2.91606e-37
-4.17781e-38
-4.08814e-38
-6.31547e-39
-3.77645e-39
-3.80165e-40
-6.44402e-40
3.34127e-40
-2.85322e-37
3.45275e-41
-3.90233e-38
9.96489e-43
-3.55729e-39
-3.52353e-40
-1.69656e-43
3.31145e-37
-3.32404e-36
4.29386e-38
-4.01242e-37
6.43483e-39
-3.27786e-38
-3.05361e-39
6.51757e-40
2.53345e-36
-1.61456e-35
3.16958e-37
-9.23564e-37
4.26335e-38
-3.51276e-38
-3.73e-40
4.10401e-39
3.41601e-35
-2.05691e-34
3.65208e-36
-9.84358e-36
4.80106e-37
-3.2465e-37
-5.40763e-40
4.35521e-38
-4.48745e-35
4.75183e-35
-4.98933e-36
3.2885e-36
-6.64174e-37
1.76608e-37
9.92233e-39
-6.14446e-38
-1.1474e-34
6.94005e-34
-1.24948e-35
3.59572e-35
-1.65459e-36
1.39517e-36
3.35799e-38
-1.51618e-37
3.59281e-35
4.91795e-34
3.86168e-36
2.59097e-35
5.0965e-37
1.02638e-36
2.6826e-38
4.64133e-38
7.94373e-35
4.56954e-35
8.69363e-36
3.43818e-36
1.15223e-36
2.00416e-37
1.28078e-38
1.0581e-37
5.92151e-36
7.49319e-37
1.0307e-37
1.00693e-38
2.06326e-34
-1.69335e-35
7.34986e-33
-1.42523e-35
2.07348e-36
3.28819e-35
-7.32372e-33
3.27116e-35
-4.44038e-35
-1.57742e-35
7.23761e-35
-3.40587e-35
7.48222e-33
-1.72789e-35
2.26525e-34
1.55914e-35
1.58045e-34
1.71077e-35
2.58871e-35
1.5173e-36
2.06392e-36
1.8393e-37
1.93112e-37
1.39202e-38
-4.17126e-37
3.55387e-39
-3.90798e-36
2.6398e-38
-4.97231e-35
3.54157e-37
-2.90408e-34
2.8518e-36
-2.96816e-34
3.27104e-35
-1.47613e-32
1.42431e-35
7.20903e-33
-4.88411e-35
1.4082e-34
-3.55887e-35
7.61619e-33
-1.63264e-36
2.76029e-34
1.83737e-35
3.18374e-34
1.83746e-35
2.54909e-34
-1.39584e-35
7.50998e-33
-1.55159e-35
2.28589e-34
1.5859e-35
1.58307e-34
1.86846e-35
2.63787e-35
2.50077e-36
2.53691e-36
-8.00755e-37
4.13295e-36
-1.57561e-36
5.16335e-35
-4.30352e-37
3.1513e-34
-2.89829e-36
4.35157e-34
-3.10066e-35
1.49049e-32
6.62053e-35
4.92822e-34
4.9149e-35
-7.05098e-33
2.05736e-35
1.4382e-32
-7.42523e-36
-1.47112e-32
4.79107e-35
-2.81951e-34
-5.1568e-38
-2.97623e-35
1.1688e-34
-1.82529e-35
2.04362e-34
-1.53299e-35
1.89311e-37
3.54327e-35
-2.02229e-34
3.52466e-35
-1.04355e-34
-1.69895e-35
1.06654e-34
-3.67152e-35
2.14724e-34
-1.86303e-35
1.18752e-34
1.67897e-35
1.24526e-35
1.84431e-35
2.1091e-36
1.65455e-36
1.88426e-37
2.01045e-37
1.78794e-38
1.53001e-38
-3.88128e-38
3.91162e-39
-3.56335e-37
2.90115e-38
-4.03102e-36
3.8703e-37
-2.28153e-35
3.1093e-36
-2.25216e-34
3.52453e-35
-3.12578e-34
1.53197e-35
-8.59176e-36
-5.26245e-35
2.12929e-34
-3.83857e-35
2.24998e-34
-1.84773e-36
1.22546e-34
1.81978e-35
2.53303e-35
1.876e-35
1.21322e-34
-1.6634e-35
2.17007e-34
-1.67762e-35
1.18729e-34
1.70152e-35
1.24962e-35
1.86048e-35
2.58759e-36
3.28687e-36
2.51159e-37
-1.43261e-36
1.60701e-37
-1.60272e-37
4.16322e-36
-4.0732e-37
2.45499e-35
-3.22674e-36
2.35875e-34
-3.50688e-35
4.252e-34
-3.00136e-35
1.39652e-34
5.12122e-35
2.08518e-35
2.05298e-35
8.12844e-35
-8.95107e-36
-2.07256e-34
5.00513e-35
-2.15765e-34
1.43839e-36
-3.11143e-35
4.43962e-36
-1.48069e-36
7.38529e-36
-1.20888e-36
2.29481e-38
2.86325e-36
-7.15835e-36
2.84526e-36
-3.65325e-36
-1.36403e-36
3.89983e-36
-2.98199e-36
7.94021e-36
-1.5173e-36
4.63327e-36
1.34464e-36
7.76031e-37
1.49921e-36
2.23463e-37
1.5469e-37
2.28018e-38
1.95268e-38
2.45519e-39
1.58325e-39
-5.35571e-39
4.13291e-40
-4.27674e-38
2.99756e-39
-4.24304e-37
3.74967e-38
-1.33123e-36
2.89985e-37
-8.50998e-36
2.84513e-36
-1.14424e-35
1.20777e-36
-3.71877e-37
-4.24692e-36
7.75468e-36
-3.13819e-36
8.49447e-36
-1.71627e-37
5.03857e-36
1.48587e-36
1.59387e-36
1.64722e-36
4.90269e-36
-1.31902e-36
8.18434e-36
-1.34132e-36
4.64036e-36
1.36848e-36
7.81148e-37
1.52366e-36
2.62205e-37
4.14088e-37
3.0385e-38
-2.4001e-37
2.6835e-38
-2.42599e-38
4.19651e-37
-4.09133e-38
1.27652e-36
-2.97751e-37
8.88505e-36
-2.82513e-36
1.61852e-35
-7.77213e-37
6.00901e-36
4.12082e-36
1.15542e-36
1.71008e-36
2.82106e-36
-4.95576e-37
-7.73228e-36
4.01802e-36
-8.39251e-36
1.29405e-37
-2.56823e-36
1.23118e-37
-1.72335e-37
1.88675e-37
-1.40025e-37
1.64654e-39
3.33745e-37
-1.7388e-37
3.31363e-37
-8.52354e-38
-1.58811e-37
1.01422e-37
-3.47697e-37
2.11456e-37
-1.77328e-37
1.35515e-37
1.56236e-37
3.71353e-38
1.74931e-37
1.45264e-38
1.87129e-38
1.63487e-39
2.59461e-39
1.84198e-40
2.19545e-40
-4.03581e-40
6.00361e-41
-3.05557e-39
4.14436e-40
-2.74321e-38
4.97359e-39
-5.99423e-38
3.48502e-38
-2.35277e-37
3.31343e-37
-2.99882e-37
1.39881e-37
-1.1153e-38
-4.95167e-37
1.99523e-37
-3.66628e-37
2.33244e-37
-2.10805e-38
1.60735e-37
1.71866e-37
7.81168e-38
1.79454e-37
1.54271e-37
-1.54127e-37
2.27473e-37
-1.55911e-37
1.35216e-37
1.59297e-37
3.76083e-38
1.7701e-37
1.90092e-38
3.75011e-38
2.28645e-39
-1.62128e-38
1.02784e-39
-2.03847e-39
2.64889e-38
-5.19221e-39
5.20073e-38
-3.43621e-38
2.43047e-37
-3.21835e-37
4.59237e-37
-1.15933e-38
2.01745e-37
4.87017e-37
4.84955e-38
2.0133e-37
7.15394e-38
-6.75812e-38
-2.09844e-37
4.67428e-37
-2.49816e-37
1.78224e-38
-2.86738e-37
1.48412e-39
-1.19368e-38
5.36783e-40
-9.56935e-39
1.43754e-40
2.31057e-38
6.92375e-40
2.29227e-38
8.7391e-40
-1.09603e-38
4.74817e-40
-2.41247e-38
1.64069e-39
-1.23292e-38
2.503e-39
1.0762e-38
2.29235e-39
1.21451e-38
1.20375e-39
1.38459e-39
1.42601e-40
1.99964e-40
1.69223e-41
1.76613e-41
-3.71703e-41
4.93562e-42
-2.65459e-40
3.32859e-41
-2.26623e-39
3.82596e-40
-3.39916e-39
2.57078e-39
-2.83288e-39
2.29211e-38
-1.8019e-39
9.55822e-39
-1.51074e-40
-3.42671e-38
6.64506e-40
-2.55258e-38
2.70095e-39
-1.55511e-39
4.61655e-39
1.1973e-38
4.87992e-39
1.31364e-38
4.03353e-39
-1.05353e-38
2.97325e-39
-1.07236e-38
2.51757e-39
1.10107e-38
2.33176e-39
1.23581e-38
1.51453e-39
3.35469e-39
1.97485e-40
-1.77166e-39
1.17978e-40
-2.09147e-40
2.11186e-39
-4.05716e-40
2.0155e-39
-2.48597e-39
2.05751e-39
-2.19944e-38
7.71263e-39
5.05349e-40
7.18988e-39
3.39053e-38
2.57674e-39
1.42339e-38
2.8946e-40
-3.56703e-39
-2.39796e-39
3.23035e-38
-5.34101e-39
1.321e-39
-2.02354e-38
-7.10952e-41
-9.67549e-40
-2.36985e-40
-8.01599e-40
9.38437e-42
1.95223e-39
3.13603e-40
1.93547e-39
1.97458e-40
-9.2525e-40
-1.12562e-40
-2.03849e-39
-1.83262e-40
-1.04332e-39
-2.24229e-42
9.07306e-40
1.27602e-40
1.0267e-39
7.53819e-41
1.19528e-40
9.3498e-42
1.80955e-41
1.13386e-42
1.63595e-42
-2.49755e-42
4.68385e-43
-1.73714e-41
3.07811e-42
-1.41505e-40
3.45867e-41
-1.81045e-40
2.21108e-40
1.24316e-40
1.93529e-39
3.00773e-40
8.04101e-40
5.678e-42
-2.89543e-39
-2.44188e-40
-2.15958e-39
-1.36121e-40
-1.35403e-40
1.26373e-40
1.00726e-39
2.77433e-40
1.07552e-39
9.77438e-41
-8.90655e-40
-9.93874e-41
-9.04275e-40
-3.99934e-42
9.29414e-40
1.30574e-40
1.04258e-39
1.01532e-40
2.55069e-40
1.33158e-41
-1.17585e-40
4.53067e-42
-1.54397e-41
1.28786e-40
-3.54693e-41
7.71209e-41
-2.04613e-40
-2.02243e-40
-1.80912e-39
-6.0127e-41
4.86656e-40
2.73281e-40
2.91045e-39
1.30042e-40
1.21489e-39
-7.45199e-41
-3.24884e-40
1.26344e-40
2.72649e-39
-6.0401e-41
1.21316e-40
-1.67475e-39
-8.1541e-41
3.25883e-40
-3.04631e-41
-1.73368e-41
1.16515e-43
1.26584e-40
2.96832e-41
1.23308e-40
1.79696e-41
-5.8775e-41
-1.19216e-41
-1.2993e-40
-2.09051e-41
-6.65924e-41
-4.55537e-42
5.75698e-41
8.61635e-42
6.54677e-41
5.36114e-42
7.90767e-42
6.77809e-43
1.22666e-42
8.3964e-44
1.13893e-43
-1.85208e-43
3.30622e-44
-1.25708e-42
2.14061e-43
-1.00513e-41
2.3417e-42
-1.19622e-41
1.45991e-41
1.71668e-41
1.23127e-40
3.27588e-41
5.07653e-41
8.42257e-43
-1.84275e-40
-2.5212e-41
-1.37943e-40
-1.78934e-41
-8.93239e-42
4.67697e-42
6.44189e-41
1.87289e-41
7.12199e-41
2.46752e-42
-5.61725e-41
-1.49311e-41
-5.73067e-41
-4.56732e-42
5.91233e-41
8.82517e-42
6.67643e-41
7.02647e-42
1.90787e-41
9.55855e-43
-9.95384e-42
3.93807e-43
-1.26124e-42
8.86359e-42
-2.4146e-42
2.2394e-42
-1.31608e-41
-2.52139e-41
-1.13073e-40
-1.75079e-41
4.39892e-41
1.65794e-41
1.87052e-40
8.75252e-42
7.8622e-41
-7.97381e-42
-1.65754e-41
1.61938e-41
1.73461e-40
3.326e-42
8.0393e-42
-1.08232e-40
-5.26239e-40
3.33314e-40
-4.42415e-41
2.56016e-41
-3.63657e-42
1.08007e-41
1.58732e-42
8.8401e-42
1.09308e-42
-4.13881e-42
-7.57448e-43
-9.17574e-42
-1.34336e-42
-4.7073e-42
-3.35211e-43
4.05906e-42
4.96153e-43
4.62491e-42
3.14751e-43
5.66582e-43
4.0798e-44
8.99853e-44
5.10695e-45
8.46997e-45
-1.12857e-44
2.49012e-45
-7.55867e-44
1.59044e-44
-5.89128e-43
1.71673e-43
-6.83077e-43
1.04396e-42
1.13295e-42
8.69061e-42
2.0888e-42
3.57327e-42
5.71616e-44
-1.30121e-41
-1.59599e-42
-9.75081e-42
-1.1861e-42
-6.42995e-43
1.96129e-43
4.53808e-42
1.09084e-42
4.94262e-42
8.89775e-44
-3.96646e-42
-9.91463e-43
-4.04099e-42
-3.43913e-43
4.17192e-42
5.09909e-43
4.71145e-42
4.32016e-43
1.27835e-42
5.85563e-44
-6.22464e-43
1.35351e-44
-8.34961e-44
5.06375e-43
-1.72139e-43
3.73003e-44
-8.99192e-43
-1.67637e-42
-7.75997e-42
-1.19034e-42
4.98103e-42
9.51048e-43
1.34215e-41
4.99569e-43
5.60569e-42
-4.87972e-43
-1.21909e-42
1.0784e-42
1.2239e-41
3.01656e-43
5.94774e-43
-7.55183e-42
-5.606e-39
-5.38125e-40
-4.31192e-40
-4.38253e-41
-3.64324e-41
-2.42727e-42
-2.41919e-42
3.03323e-43
-1.13351e-43
-2.56639e-43
-5.98588e-44
-5.41165e-43
-8.66765e-44
-2.77493e-43
-2.22424e-44
2.38281e-43
3.0723e-44
2.72414e-43
1.96225e-44
3.41766e-44
2.5717e-45
5.503e-45
3.25186e-46
5.26984e-46
-7.19282e-46
1.56202e-46
-4.76029e-45
9.88866e-46
-3.67006e-44
1.049e-44
-4.21803e-44
6.28994e-44
7.30101e-44
5.11109e-43
1.33332e-43
2.09037e-43
3.72467e-45
-7.65432e-43
-1.01626e-43
-5.75003e-43
-7.60858e-44
-3.86791e-44
1.11062e-44
2.67988e-43
6.74153e-44
2.99296e-43
4.06127e-45
-2.31736e-43
-6.39741e-44
-2.36987e-43
-2.25006e-44
2.45366e-43
3.15788e-44
2.78428e-43
2.65203e-44
8.38132e-44
3.66347e-45
-4.41745e-44
9.21955e-46
-5.80457e-45
3.05271e-44
-1.05051e-44
-5.86015e-45
-5.24751e-44
-1.1392e-43
-4.46429e-43
-7.15316e-44
3.60563e-43
6.56215e-44
7.98914e-43
3.20414e-44
3.34386e-43
-3.10615e-44
-5.93139e-44
6.88532e-44
7.19914e-43
2.10315e-44
3.58497e-44
-4.49526e-43
-2.50696e-40
-5.53825e-40
-2.28465e-41
-4.3444e-41
-2.21872e-42
-2.88566e-42
-1.63332e-43
-1.75773e-43
-9.43117e-45
-2.80267e-44
-3.5308e-45
-3.42606e-44
-4.76799e-45
-1.72261e-44
-1.23392e-45
1.47233e-44
1.66676e-45
1.68601e-44
1.07024e-45
2.13719e-45
1.42573e-46
3.48367e-46
1.81248e-47
3.36565e-47
-4.01416e-47
1.00425e-47
-2.63754e-46
6.31228e-47
-1.99947e-45
6.63786e-46
-2.28333e-45
3.92919e-45
4.01055e-45
3.16126e-44
7.29775e-45
1.29006e-44
2.07296e-46
-4.73538e-44
-5.56395e-45
-3.56054e-44
-4.20535e-45
-2.42464e-45
5.59252e-46
1.65609e-44
3.68627e-45
1.83456e-44
2.32098e-46
-1.43308e-44
-3.50758e-45
-1.46463e-44
-1.26738e-45
1.51723e-44
1.71739e-45
1.72244e-44
1.49613e-45
5.05624e-45
2.05489e-46
-2.57317e-45
2.27717e-47
-3.49204e-46
1.61484e-45
-6.48377e-46
-6.27197e-46
-3.1252e-45
-6.49471e-45
-2.67912e-44
-3.69456e-45
2.89112e-44
3.80598e-45
5.02251e-44
1.75688e-45
2.08818e-44
-1.65137e-45
-3.72854e-45
3.82357e-45
4.4513e-44
1.1538e-45
2.28155e-45
-2.76192e-44
2.67779e-39
1.44884e-40
1.85989e-40
2.8214e-41
1.33566e-41
2.09563e-42
8.43455e-43
1.41102e-43
5.38761e-44
7.30533e-45
2.96271e-45
-1.35656e-45
-8.44219e-47
-9.12709e-46
-5.95354e-47
8.02777e-46
9.35447e-47
9.19905e-46
5.98907e-47
1.18541e-46
8.03892e-48
1.94693e-47
1.02687e-48
1.90303e-48
-2.27556e-48
5.70402e-49
-1.48622e-47
3.56768e-48
-1.1178e-46
3.70758e-47
-1.27321e-46
2.17785e-46
2.24739e-46
1.72279e-45
4.0843e-46
7.00334e-46
1.16956e-47
-2.58097e-45
-3.11345e-46
-1.94414e-45
-2.3528e-46
-1.34136e-46
3.1204e-47
9.05542e-46
2.05534e-46
1.02216e-45
1.24087e-47
-7.76944e-46
-1.96378e-46
-7.96494e-46
-7.08306e-47
8.26902e-46
9.58634e-47
9.42178e-46
8.30678e-47
2.97675e-46
1.15203e-47
-1.59803e-46
1.14653e-48
-2.14209e-47
8.71077e-47
-3.59911e-47
-5.87238e-47
-1.66825e-46
-3.84258e-46
-1.42245e-45
-1.86536e-46
1.83625e-45
2.35793e-46
2.77379e-45
1.01508e-46
1.15218e-45
-9.19033e-47
-1.71344e-46
2.13473e-46
2.42627e-45
6.49663e-47
1.2626e-46
-1.51958e-45
-3.47966e-40
1.77553e-40
-2.5151e-41
2.88895e-41
-1.85486e-42
2.11734e-42
-1.20719e-43
1.42084e-43
-7.85815e-45
8.31198e-45
-4.7553e-46
3.85988e-46
-4.09217e-47
-2.58715e-47
-5.03134e-48
4.59476e-47
4.62694e-48
5.12534e-47
3.03535e-48
6.65173e-48
4.12614e-49
1.09895e-48
5.28562e-50
1.08061e-49
-1.17265e-49
3.24897e-50
-7.63101e-49
2.02519e-49
-5.67074e-48
2.09184e-48
-6.43486e-48
1.22079e-47
1.14092e-47
9.58111e-47
2.07073e-47
3.88773e-47
5.99127e-49
-1.43555e-46
-1.57952e-47
-1.08221e-46
-1.20052e-47
-7.53115e-48
1.51583e-48
5.03522e-47
1.04648e-47
5.66158e-47
6.88047e-49
-4.31838e-47
-9.95135e-48
-4.42655e-47
-3.65149e-48
4.59777e-47
4.86074e-48
5.24229e-47
4.32809e-48
1.63997e-47
5.96375e-49
-8.65997e-48
-1.05793e-50
-1.18306e-48
4.27163e-48
-1.98361e-48
-3.92832e-48
-8.8861e-48
-2.03054e-47
-7.65514e-47
-8.65575e-48
1.21993e-46
1.27903e-47
1.56788e-46
5.22189e-48
6.46757e-47
-4.54561e-48
-9.4831e-48
1.09358e-47
1.34899e-46
3.25362e-48
7.15021e-48
-8.42121e-47
-5.65609e-39
-1.79679e-40
-3.95749e-40
-3.02713e-41
-2.8691e-41
-2.23098e-42
-1.82506e-42
-1.50215e-43
-1.17245e-43
-8.87092e-45
-6.85087e-45
-5.24178e-46
-3.98915e-46
-3.07513e-47
-2.17163e-47
7.52298e-49
-9.08926e-49
2.52128e-48
9.73169e-50
3.37654e-49
1.83408e-50
5.64655e-50
2.58554e-51
5.60734e-51
-6.04372e-51
1.69162e-51
-3.91866e-50
1.05228e-50
-2.89425e-49
1.07792e-49
-3.27814e-49
6.26715e-49
5.82458e-49
4.85766e-48
1.05648e-48
1.96531e-48
3.07528e-50
-7.27876e-48
-8.05922e-49
-5.49478e-48
-6.12616e-49
-3.8584e-49
7.73319e-50
2.56007e-48
5.33439e-49
2.92082e-48
3.48561e-50
-2.18026e-48
-5.07593e-49
-2.24061e-48
-1.86224e-49
2.33122e-48
2.47857e-49
2.66577e-48
2.20495e-49
8.80717e-49
3.05032e-50
-4.83021e-49
-1.50508e-51
-6.54874e-50
2.09557e-49
-1.01186e-49
-2.61735e-49
-4.36629e-49
-1.08994e-48
-3.76528e-48
-3.87915e-49
6.99501e-48
7.12861e-49
8.06301e-48
2.74859e-49
3.31606e-48
-2.30021e-49
-4.0951e-49
5.57581e-49
6.84051e-48
1.65891e-49
3.66036e-49
-4.30286e-48
-2.28938e-40
-1.74484e-40
-1.67015e-41
-3.1419e-41
-1.23169e-42
-2.33551e-42
-8.0499e-44
-1.57632e-43
-5.24017e-45
-9.31914e-45
-3.12119e-46
-5.45912e-46
-1.83698e-47
-2.96976e-47
-1.0146e-48
-1.46779e-48
-4.27882e-50
5.22843e-50
4.60572e-51
1.35184e-50
8.77192e-52
2.72031e-51
1.23716e-52
2.80798e-52
-2.89563e-52
8.6911e-53
-1.87501e-51
5.42329e-52
-1.37257e-50
5.53135e-51
-1.55017e-50
3.20723e-50
2.76263e-50
2.46985e-49
5.00631e-50
9.97713e-50
1.46868e-51
-3.70103e-49
-3.82118e-50
-2.79593e-49
-2.91784e-50
-1.97541e-50
3.54185e-51
1.30205e-49
2.53749e-50
1.48385e-49
1.7742e-51
-1.10757e-49
-2.40412e-50
-1.13852e-49
-8.94039e-51
1.1851e-49
1.1751e-50
1.3563e-49
1.06808e-50
4.47747e-50
1.46745e-51
-2.44088e-50
-2.23179e-52
-3.34751e-51
9.55772e-51
-5.07464e-51
-1.48917e-50
-2.1135e-50
-5.38126e-50
-1.84632e-49
-1.62509e-50
4.07282e-49
3.60593e-50
4.16696e-49
1.32683e-50
1.70141e-49
-1.06618e-50
-2.03177e-50
2.66466e-50
3.4773e-49
7.77172e-51
1.88287e-50
-2.18464e-49
2.81608e-39
1.74919e-40
1.96852e-40
1.06999e-41
1.4261e-41
6.37177e-43
9.06573e-43
4.02348e-44
5.8212e-44
2.32657e-45
3.39972e-45
1.35171e-46
1.97566e-46
7.27668e-48
1.06807e-47
3.94096e-49
5.70237e-49
2.57957e-50
2.90407e-50
1.80217e-51
1.46702e-51
1.84768e-52
7.31101e-53
1.60468e-53
-1.06222e-53
4.30017e-54
-8.87201e-53
2.61298e-53
-6.47313e-52
2.6488e-52
-7.29914e-52
1.53408e-51
1.30296e-51
1.17014e-50
2.35997e-51
4.71601e-51
6.95834e-53
-1.75347e-50
-1.80157e-51
-1.32611e-50
-1.37654e-51
-9.42905e-52
1.6632e-52
6.18383e-51
1.19617e-51
7.1302e-51
8.40865e-53
-5.22903e-51
-1.13303e-51
-5.38698e-51
-4.22026e-52
5.61487e-51
5.53839e-52
6.44152e-51
5.0445e-52
2.21817e-51
6.93214e-53
-1.24368e-51
-1.36761e-53
-1.6975e-52
4.31169e-52
-2.3977e-52
-8.41261e-52
-9.60764e-52
-2.65912e-51
-8.44648e-51
-6.44146e-52
2.14042e-50
1.83649e-51
2.00383e-50
6.44242e-52
8.14525e-51
-4.97515e-52
-8.21501e-52
1.25708e-51
1.64766e-50
3.65471e-52
8.97313e-52
-1.0418e-50
2.82058e-40
2.0367e-40
2.03895e-41
1.46903e-41
1.49729e-42
9.31881e-43
9.72963e-44
6.01696e-44
6.31436e-45
3.52113e-45
3.74598e-46
2.05642e-46
2.19589e-47
1.11436e-47
1.20129e-48
5.9698e-49
6.45677e-50
3.04178e-50
3.29673e-51
1.53391e-51
1.6544e-52
7.72357e-53
8.03804e-54
3.93411e-54
-2.53849e-55
3.45038e-55
-3.9659e-54
1.2459e-54
-2.88123e-53
1.25281e-53
-3.24149e-53
7.25335e-53
5.79985e-53
5.50252e-52
1.04973e-52
2.21473e-52
3.1143e-54
-8.24557e-52
-8.01754e-53
-6.23997e-52
-6.1491e-53
-4.45666e-53
7.18507e-54
2.90977e-52
5.33818e-53
3.35741e-52
3.95843e-54
-2.45623e-52
-5.03777e-53
-2.53175e-52
-1.8976e-53
2.63999e-52
2.4648e-53
3.03149e-52
2.28481e-53
1.04893e-52
3.11737e-54
-5.88112e-53
-9.07228e-55
-8.08434e-54
1.8347e-53
-1.10805e-53
-4.30035e-53
-4.26986e-53
-1.23142e-52
-3.81435e-52
-2.38438e-53
1.12366e-51
8.6911e-53
9.57878e-52
2.92622e-53
3.86458e-52
-2.16835e-53
-3.69341e-53
5.63196e-53
7.74678e-52
1.6092e-53
4.25044e-53
-4.89902e-52
-1.14892e-42
2.01433e-40
-7.56576e-44
1.44869e-41
-5.26834e-45
9.15895e-43
-3.15127e-46
5.90357e-44
-1.94426e-47
3.44695e-45
-1.07363e-48
2.01051e-46
-6.01243e-50
1.08769e-47
-3.09556e-51
5.81836e-49
-1.58697e-52
2.93464e-50
-7.03883e-54
1.45574e-51
-2.76142e-55
6.89629e-53
-4.74559e-57
3.2083e-54
-2.78532e-56
1.50213e-55
-1.75776e-55
6.18706e-56
-1.26666e-54
5.61099e-55
-1.42301e-54
3.24926e-54
2.54964e-54
2.44643e-53
4.61269e-54
9.82851e-54
1.37437e-55
-3.66591e-53
-3.52374e-54
-2.77677e-53
-2.70525e-54
-1.99223e-54
3.13513e-55
1.2965e-53
2.347e-54
1.51052e-53
1.76083e-55
-1.08878e-53
-2.21321e-54
-1.12444e-53
-8.36008e-55
1.17377e-53
1.08308e-54
1.35062e-53
1.00807e-54
4.83417e-54
1.37216e-55
-2.76994e-54
-4.74439e-56
-3.79608e-55
7.66789e-55
-4.87981e-55
-2.16874e-54
-1.80235e-54
-5.65602e-54
-1.62868e-53
-8.03704e-55
5.46683e-53
4.09233e-54
4.32511e-53
1.32292e-54
1.73524e-53
-9.41717e-55
-1.39213e-54
2.47908e-54
3.44458e-53
7.04581e-55
1.89585e-54
-2.19049e-53
-2.62415e-40
-4.96165e-41
-1.88471e-41
-5.77663e-42
-1.37444e-42
-4.14752e-43
-8.89651e-44
-2.7866e-44
-5.75177e-45
-1.66525e-45
-3.4046e-46
-9.81629e-47
-1.9918e-47
-5.37355e-48
-1.08842e-48
-2.89439e-49
-5.84274e-50
-1.47189e-50
-2.9692e-51
-7.33651e-52
-1.47731e-52
-3.48774e-53
-7.02312e-54
-1.62142e-54
-3.2752e-55
-7.212e-56
-2.19959e-56
-7.08372e-58
-5.37538e-56
2.4547e-56
-5.9588e-56
1.43173e-55
1.06915e-55
1.073e-54
1.93314e-55
4.30577e-55
5.78902e-57
-1.60781e-54
-1.47744e-55
-1.21856e-54
-1.13791e-55
-8.77104e-56
1.28037e-56
5.69141e-55
9.86461e-56
6.64366e-55
7.73022e-57
-4.76945e-55
-9.27237e-56
-4.92919e-55
-3.5362e-56
5.14752e-55
4.54151e-56
5.92903e-55
4.29017e-56
2.13968e-55
5.79649e-57
-1.23026e-55
-2.51582e-57
-1.69362e-56
3.05133e-56
-2.09655e-56
-1.01815e-55
-7.40203e-56
-2.46563e-55
-6.82336e-55
-2.42422e-56
2.6321e-54
1.81868e-55
1.92867e-54
5.67053e-56
7.67802e-55
-3.87122e-56
-5.69904e-56
1.04553e-55
1.51061e-54
2.92565e-56
8.35026e-56
-9.61712e-55
-2.79285e-39
-6.4198e-40
-1.94147e-40
-6.53514e-41
-1.40261e-41
-4.48381e-42
-8.88252e-43
-2.96169e-43
-5.69165e-44
-1.74052e-44
-3.31488e-45
-1.01725e-45
-1.92321e-46
-5.50667e-47
-1.03758e-47
-2.94642e-48
-5.52684e-49
-1.4856e-49
-2.77909e-50
-7.36399e-51
-1.37281e-51
-3.47773e-52
-6.46767e-53
-1.60969e-53
-2.98526e-54
-7.15238e-55
-1.32668e-55
-3.0996e-56
-7.93276e-57
-2.67187e-58
-2.69431e-57
5.9801e-57
4.40004e-57
4.49399e-56
7.97015e-57
1.80069e-56
2.39564e-58
-6.73389e-56
-6.09306e-57
-5.10754e-56
-4.6987e-57
-3.68834e-57
5.2294e-58
2.38855e-56
4.07114e-57
2.81131e-56
3.23961e-58
-1.99243e-56
-3.82239e-57
-2.06278e-56
-1.46304e-57
2.15602e-56
1.8728e-57
2.48786e-56
1.77862e-57
9.23357e-57
2.39314e-58
-5.40247e-57
-1.18646e-58
-7.42293e-58
1.18712e-57
-8.64972e-58
-4.69534e-57
-2.9074e-57
-1.06021e-56
-2.72682e-56
-5.65041e-58
1.19428e-55
7.98533e-57
8.20783e-56
2.40361e-57
3.24651e-56
-1.57555e-57
-1.98697e-57
4.32128e-57
6.32762e-56
1.20093e-57
3.50183e-57
-4.0485e-56
4.00172e-39
-4.1363e-40
2.81565e-40
-2.47329e-41
2.04598e-41
-1.46222e-42
1.30639e-42
-9.21293e-44
8.40796e-44
-5.3286e-45
4.92615e-45
-3.09719e-46
2.86803e-46
-1.66983e-47
1.55429e-47
-8.91528e-49
8.30276e-49
-4.48326e-50
4.18964e-50
-2.21847e-51
2.07448e-51
-1.04546e-52
9.80101e-53
-4.83161e-54
4.53279e-54
-2.14302e-55
2.01432e-55
-9.30103e-57
8.66662e-57
-3.47121e-58
2.70255e-58
2.33437e-58
1.8987e-58
1.84965e-57
3.16386e-58
7.40576e-58
9.55531e-60
-2.77221e-57
-2.41502e-58
-2.10381e-57
-1.86764e-58
-1.52277e-58
2.02373e-59
9.84404e-58
1.61719e-58
1.16183e-57
1.33487e-59
-8.19188e-58
-1.51399e-58
-8.48845e-58
-5.84381e-59
8.87556e-58
7.42383e-59
1.02524e-57
7.1419e-59
3.84466e-58
9.53624e-60
-2.26169e-58
-5.53975e-60
-3.11666e-59
4.4236e-59
-3.47758e-59
-2.04904e-58
-1.10708e-58
-4.36516e-58
-1.06503e-57
-6.03483e-60
5.33379e-57
3.34452e-58
3.4363e-57
9.75047e-59
1.34831e-57
-6.12659e-59
-7.38926e-59
1.72179e-58
2.60489e-57
4.71713e-59
1.4445e-58
-1.66966e-57
9.75928e-39
3.88135e-40
6.82624e-40
9.10936e-41
4.94763e-41
6.91874e-42
3.14652e-42
4.69334e-43
2.02103e-43
2.77616e-44
1.18066e-44
1.62532e-45
6.86255e-46
8.80105e-47
3.7108e-47
4.70928e-48
1.9795e-48
2.37425e-49
9.97107e-50
1.17681e-50
4.93125e-51
5.55712e-52
2.32643e-52
2.57196e-53
1.07482e-53
1.14273e-54
4.77086e-55
4.96834e-56
2.07086e-56
2.08665e-57
8.64583e-58
9.54864e-59
4.23898e-59
7.66625e-59
1.36937e-59
2.94181e-59
4.26799e-61
-1.0975e-58
-9.39146e-60
-8.33473e-59
-7.27461e-60
-6.04677e-60
7.78045e-61
3.90483e-59
6.29634e-60
4.64205e-59
5.28837e-61
-3.23585e-59
-5.88635e-60
-3.35846e-59
-2.28156e-60
3.51413e-59
2.88759e-60
4.06591e-59
2.79514e-60
1.56163e-59
3.71196e-61
-9.32048e-60
-2.40561e-61
-1.28286e-60
1.606e-60
-1.34965e-60
-8.76182e-60
-4.04659e-60
-1.76697e-59
-3.99061e-59
4.58247e-61
2.27007e-58
1.37823e-59
1.38297e-58
3.89592e-60
5.38776e-59
-2.34901e-60
-2.34338e-60
6.71474e-60
1.03144e-58
1.82495e-60
5.71769e-60
-6.64144e-59
-3.29911e-39
-7.29759e-41
-2.30586e-40
3.7914e-41
-1.67025e-41
3.18855e-42
-1.06168e-42
2.21449e-43
-6.81656e-44
1.31698e-44
-3.98078e-45
7.72106e-46
-2.31323e-46
4.18135e-47
-1.25055e-47
2.23723e-48
-6.66993e-49
1.12769e-49
-3.35927e-50
5.58864e-51
-1.66119e-51
2.6385e-52
-7.8364e-53
1.22097e-53
-3.62026e-54
5.42376e-55
-1.60689e-55
2.35775e-56
-6.97613e-57
9.89317e-58
-2.92612e-58
4.09769e-59
-1.17318e-59
4.45926e-60
-1.49796e-62
1.19915e-60
-4.47943e-63
-4.26014e-60
-3.53715e-61
-3.23846e-60
-2.74111e-61
-2.35333e-61
2.85943e-62
1.51839e-60
2.37104e-61
1.81104e-60
2.05551e-62
-1.25501e-60
-2.21078e-61
-1.30383e-60
-8.63408e-62
1.36476e-60
1.08534e-61
1.58076e-60
1.0627e-61
6.14217e-61
1.40021e-62
-3.68974e-61
-1.02454e-62
-5.08863e-62
5.60288e-62
-5.10285e-62
-3.58243e-61
-1.42867e-61
-6.89169e-61
-1.45726e-60
4.24553e-62
9.48078e-60
5.45806e-61
5.4633e-60
1.49965e-61
2.11077e-60
-8.66312e-62
-7.7899e-62
2.53565e-61
4.00586e-60
6.79962e-62
2.22109e-61
-2.58528e-60
-9.84663e-39
-1.29171e-39
-6.88217e-40
-1.09055e-40
-4.98553e-41
-7.18094e-42
-3.16903e-42
-4.68615e-43
-2.03478e-43
-2.74317e-44
-1.18828e-44
-1.6011e-45
-6.90523e-46
-8.65906e-47
-3.73299e-47
-4.63081e-48
-1.99102e-48
-2.33348e-49
-1.00274e-49
-1.15623e-50
-4.9586e-51
-5.45784e-52
-2.33908e-52
-2.52535e-53
-1.08058e-53
-1.12167e-54
-4.79612e-55
-4.87567e-56
-2.08208e-56
-2.04555e-57
-8.7289e-58
-8.39133e-59
-3.57659e-59
-3.23004e-60
-1.40438e-60
-8.71095e-62
-5.46886e-62
-1.6491e-61
-1.50876e-62
-1.21823e-61
-1.01882e-62
-8.85995e-63
1.03668e-63
5.71023e-62
8.74353e-63
6.85515e-62
7.72128e-64
-4.70137e-62
-8.13976e-63
-4.89175e-62
-3.19343e-63
5.1234e-62
3.99804e-63
5.94323e-62
3.94101e-63
2.35815e-62
5.15965e-64
-1.43421e-62
-4.14446e-64
-1.97663e-63
1.89811e-63
-1.86923e-63
-1.43335e-62
-4.84428e-63
-2.63769e-62
-5.12231e-62
2.55907e-63
3.80243e-61
2.1216e-62
2.08556e-61
5.67229e-63
7.99575e-62
-3.14218e-63
-2.14958e-63
9.36749e-63
1.50395e-61
2.48979e-63
8.32566e-63
-9.74758e-62
3.49668e-39
-6.77645e-40
2.44311e-40
-4.3523e-41
1.76908e-41
-2.65067e-42
1.12425e-42
-1.68817e-43
7.21697e-44
-9.81911e-45
4.21406e-45
-5.72092e-46
2.44852e-46
-3.0926e-47
1.32359e-47
-1.65368e-48
7.05909e-49
-8.33261e-50
3.55513e-50
-4.12865e-51
1.75801e-51
-1.94884e-52
8.29305e-53
-9.01708e-54
3.83124e-54
-4.00502e-55
1.70055e-55
-1.74086e-56
7.38278e-57
-7.30353e-58
3.09532e-58
-2.99649e-59
1.26874e-59
-1.18744e-60
5.04708e-61
-4.47492e-62
1.95997e-62
-7.63571e-63
2.74872e-64
-4.54119e-63
-3.34779e-64
-3.28495e-64
3.73386e-65
2.1032e-63
3.13014e-64
2.53432e-63
2.84251e-65
-1.72695e-63
-2.90641e-64
-1.79879e-63
-1.14821e-64
1.88461e-63
1.42861e-64
2.18859e-63
1.42298e-64
8.7915e-64
1.84802e-65
-5.38446e-64
-1.6383e-65
-7.43148e-65
6.18362e-65
-6.67144e-65
-5.52199e-64
-1.57806e-64
-9.77173e-64
-1.75026e-63
1.26394e-64
1.49406e-62
7.96758e-64
7.80525e-63
2.07681e-64
2.96684e-63
-1.10164e-64
-6.00516e-65
3.36181e-64
5.53243e-63
8.82153e-65
3.05896e-64
-3.59523e-63
9.98583e-39
3.92559e-40
6.97327e-40
9.3148e-41
5.05012e-41
7.07396e-42
3.20811e-42
4.79802e-43
2.05933e-43
2.8367e-44
1.20206e-44
1.66043e-45
6.98355e-46
8.98793e-47
3.77392e-47
4.80851e-48
2.01238e-48
2.42364e-49
1.01319e-49
1.20115e-50
5.00918e-51
5.67093e-52
2.3623e-52
2.62438e-53
1.09109e-53
1.16586e-54
4.8416e-55
5.06849e-56
2.10143e-56
2.12677e-57
8.80806e-58
8.72723e-59
3.60934e-59
3.47045e-60
1.43374e-60