/*--------------------------------*- C++ -*----------------------------------*\
| =========                 |                                                 |
| \\      /  F ield         | OpenFOAM: The Open Source CFD Toolbox           |
|  \\    /   O peration     | Version:  2.4.0                                 |
|   \\  /    A nd           | Web:      www.OpenFOAM.org                      |
|    \\/     M anipulation  |                                                 |
\*---------------------------------------------------------------------------*/
FoamFile
{
    version     2.0;
    format      ascii;
    class       surfaceScalarField;
    location    "0.15";
    object      phi;
}
// * * * * * * * * * * * * * * * * * * * * * * * * * * * * * * * * * * * * * //

dimensions      [0 3 -1 0 0 0 0];

internalField   nonuniform List<scalar> 
3742
(
-5.83264e-39
1.09578e-38
-5.04162e-40
3.979e-40
-2.0284e-41
2.57148e-41
-1.26808e-42
9.07897e-43
-4.78882e-44
4.62359e-44
-2.39222e-45
1.55708e-45
-8.43387e-47
6.63837e-47
-3.55271e-48
2.11077e-48
-1.16711e-49
7.80588e-50
-4.28433e-51
2.33238e-51
-1.31128e-52
7.65695e-53
-4.28648e-54
2.14563e-54
-1.22256e-55
6.35317e-56
-1.40337e-57
1.66712e-57
8.40401e-56
-9.71391e-60
2.86943e-54
-1.96399e-57
1.02059e-52
-7.3044e-56
3.14797e-51
-2.41424e-54
1.04597e-49
-8.46483e-53
2.8777e-48
-2.54894e-51
8.93332e-47
-8.41533e-50
2.14936e-45
-2.27259e-48
6.24156e-44
-7.05706e-47
1.27533e-42
-1.6715e-45
-4.88664e-44
-1.33977e-35
3.21076e-38
-9.11347e-35
3.54119e-37
-7.22242e-35
9.29129e-36
-1.08317e-32
2.7259e-36
7.17501e-33
-1.84076e-35
3.59969e-33
-3.29968e-36
-3.54641e-33
1.212e-35
2.79166e-35
2.05972e-37
2.38661e-35
-6.2334e-36
3.68133e-33
-3.32054e-36
9.99497e-35
-7.26169e-37
3.71469e-33
-4.21628e-35
7.12802e-35
-4.63865e-37
3.66681e-33
3.18517e-36
-3.58526e-33
3.20669e-36
3.59004e-33
2.40888e-37
-3.63313e-33
3.08113e-36
-1.87852e-35
4.24573e-40
-2.90673e-35
-3.06973e-36
-4.4191e-36
-1.14752e-37
-1.62604e-37
-1.09578e-38
-1.41317e-38
-3.979e-40
-5.24944e-40
-2.57148e-41
-3.29603e-41
-9.07897e-43
-1.18142e-42
-4.62359e-44
-5.91966e-44
-1.55708e-45
-2.01131e-45
-6.63837e-47
-8.48745e-47
-2.11077e-48
-2.71273e-48
-7.80588e-50
-9.96433e-50
-2.33238e-51
-2.98617e-51
-7.65695e-53
-9.75809e-53
-2.14563e-54
-2.73882e-54
-6.35323e-56
-8.07592e-56
-1.68594e-57
8.48693e-58
-6.24223e-58
1.08934e-55
-1.65058e-56
3.96625e-54
-5.10044e-55
1.27902e-52
-1.28361e-53
4.25108e-51
-3.70969e-52
1.20069e-49
-8.17571e-51
3.66525e-48
-2.24507e-49
8.94189e-47
-4.37811e-48
2.5148e-45
-1.17816e-46
5.16891e-44
-2.13474e-45
-5.81649e-44
-4.18186e-37
5.79304e-38
-2.85385e-36
3.68838e-37
-6.27753e-35
9.5744e-36
-8.03081e-35
2.80662e-36
3.86472e-35
-1.89647e-35
6.00476e-35
-3.4008e-36
-1.80366e-35
1.2486e-35
-1.92977e-35
2.13316e-37
2.09217e-35
-6.42252e-36
4.24818e-35
-3.41679e-36
4.3516e-35
-4.46762e-37
4.34336e-35
-4.52194e-37
4.25266e-35
-1.75107e-37
2.18065e-35
3.28781e-36
9.17357e-37
3.30456e-36
-7.67076e-37
2.49479e-37
-2.07526e-35
3.17446e-36
-2.07584e-35
4.40981e-40
-9.1114e-37
-3.16264e-36
-1.37732e-37
-1.18845e-37
-5.83264e-39
-1.13471e-38
-5.04162e-40
-4.13282e-40
-2.0284e-41
-2.67026e-41
-1.26808e-42
-9.44724e-43
-4.78882e-44
-4.81029e-44
-2.39222e-45
-1.62242e-45
-8.43387e-47
-6.91615e-47
-3.55271e-48
-2.20164e-48
-1.16711e-49
-8.14149e-50
-4.28433e-51
-2.43486e-51
-1.31128e-52
-7.99335e-53
-4.28648e-54
-2.24152e-54
-1.22345e-55
-6.6388e-56
-4.45021e-57
-2.20637e-57
-2.52666e-56
-1.52823e-56
-6.03077e-55
-4.204e-55
-1.64412e-53
-1.27751e-53
-3.19968e-52
-3.02798e-52
-7.75928e-51
-8.44613e-51
-1.09401e-49
-1.64391e-49
-2.2393e-48
-4.18174e-48
-1.40981e-47
-6.13781e-47
-1.36944e-46
-1.40526e-45
5.21712e-45
-1.2573e-44
-2.47507e-43
-4.19044e-38
2.27642e-37
-8.99126e-38
6.50577e-38
-9.24003e-37
3.53228e-37
-1.16945e-36
8.98478e-38
5.35939e-37
-6.07843e-37
8.49536e-37
-1.10344e-37
-2.37326e-37
3.9942e-37
-2.40843e-37
7.994e-39
3.25981e-37
-2.06465e-37
6.93937e-37
-1.11198e-37
7.27145e-37
-1.73786e-38
6.37297e-37
-3.12206e-37
6.113e-37
-7.16297e-39
3.45081e-37
1.05866e-37
2.52162e-38
1.06736e-37
-1.29798e-38
9.37446e-39
-3.10232e-37
1.01855e-37
-3.10746e-37
1.81958e-41
-2.48117e-38
-1.01405e-37
-1.12702e-38
-4.46292e-39
-5.14221e-40
-4.30974e-40
-5.35665e-41
-1.70511e-41
-2.20211e-42
-1.10241e-42
-1.46822e-43
-4.11113e-44
-5.56711e-45
-2.08994e-45
-2.85038e-46
-7.31009e-47
-1.00077e-47
-3.1104e-48
-4.24444e-49
-1.01654e-49
-1.38212e-50
-3.75336e-51
-5.05936e-52
-1.14469e-52
-1.5302e-53
-3.75413e-54
-4.95927e-55
-1.06853e-55
-1.45974e-56
-3.40172e-57
-1.83525e-56
-7.49159e-57
-5.36963e-55
-2.4158e-55
-1.28719e-53
-6.61975e-54
-3.5065e-52
-1.99415e-52
-6.93766e-51
-4.71808e-51
-1.70142e-49
-1.3078e-49
-2.56375e-48
-2.56285e-48
-5.53119e-47
-6.49883e-47
-5.21909e-46
-9.75737e-46
-9.19345e-45
-2.23445e-44
-1.74207e-44
-2.10846e-43
-4.12766e-42
-5.3229e-37
3.76142e-37
-3.28592e-37
2.28482e-37
-2.53322e-38
7.44543e-38
-1.44385e-38
9.40076e-39
4.98932e-39
-5.22516e-38
8.38106e-39
-9.50348e-39
-1.98613e-39
3.44125e-38
-1.61437e-39
6.71841e-40
3.93169e-39
-1.779e-38
8.95448e-39
-9.68763e-39
9.689e-39
-2.06677e-39
6.8084e-39
-4.15494e-38
6.25972e-39
-1.17263e-39
4.22845e-39
9.03104e-39
5.14058e-40
9.20781e-39
-1.48191e-40
8.09897e-40
-3.44094e-39
8.78713e-39
-3.45775e-39
1.85048e-42
-5.01687e-40
-8.74211e-39
-3.35144e-40
-3.82649e-40
-1.68212e-41
-4.30613e-41
-1.78503e-42
-1.72773e-42
-7.76396e-44
-1.18643e-43
-5.18558e-45
-4.44133e-45
-2.04199e-46
-2.31087e-46
-1.04415e-47
-8.05805e-48
-3.76544e-49
-3.45108e-49
-1.59413e-50
-1.11969e-50
-5.29296e-52
-4.12448e-52
-1.93437e-53
-1.24517e-53
-5.93491e-55
-4.05233e-55
-1.97763e-56
-1.15624e-56
-1.92873e-56
-6.37236e-57
-5.19988e-55
-1.86505e-55
-1.57543e-53
-6.16139e-54
-3.76626e-52
-1.68521e-52
-1.04452e-50
-5.16867e-51
-2.06214e-49
-1.22093e-49
-5.18744e-48
-3.47025e-48
-7.81426e-47
-6.79733e-47
-1.7486e-45
-1.78646e-45
-1.65951e-44
-2.69145e-44
-3.08594e-43
-6.50042e-43
-6.17191e-43
-6.23362e-42
-1.32363e-40
-4.9813e-35
2.53896e-35
-6.26964e-37
3.29146e-37
-4.64189e-37
-3.5971e-38
-6.36305e-38
-1.39557e-39
-2.53277e-39
-1.78408e-39
-2.97659e-40
-3.03371e-40
4.98096e-41
1.06702e-39
9.92801e-41
2.26301e-41
3.27509e-41
-5.53492e-40
1.56922e-40
-3.04341e-40
1.89962e-40
-7.43006e-41
-5.87581e-41
-1.32226e-39
-8.38023e-41
-4.40147e-41
3.72561e-41
2.8057e-40
2.1107e-41
2.87313e-40
7.8492e-43
2.73973e-41
-1.20255e-42
2.7312e-40
-2.22349e-42
6.71454e-44
-2.05978e-41
-2.71571e-40
-2.02704e-41
-1.29334e-41
-1.02261e-42
-1.47718e-42
-1.15632e-43
-6.26836e-44
-5.03411e-45
-4.31166e-45
-3.44533e-46
-1.67608e-46
-1.35191e-47
-8.70502e-48
-6.96228e-49
-3.1166e-49
-2.49329e-50
-1.33137e-50
-1.0534e-51
-4.40177e-52
-3.46431e-53
-1.61735e-53
-1.25662e-54
-4.94934e-55
-3.83967e-56
-1.6117e-56
-1.01019e-56
-2.05675e-57
-2.8901e-55
-5.61779e-56
-7.95895e-54
-1.72187e-54
-2.38829e-52
-5.63017e-53
-5.69851e-51
-1.53704e-51
-1.56926e-49
-4.67842e-50
-3.12e-48
-1.11291e-48
-7.8211e-47
-3.15197e-47
-1.20615e-45
-6.32014e-46
-2.70347e-44
-1.66655e-44
-2.72036e-43
-2.66223e-43
-5.10813e-42
-6.526e-42
-1.26579e-41
-7.20795e-41
-1.53995e-39
-5.02377e-37
8.39905e-37
-3.56948e-37
6.99378e-37
-1.65127e-38
-3.11341e-38
-2.19111e-39
-1.57653e-39
-9.90436e-41
-2.57834e-40
-1.31064e-41
-2.37888e-41
2.13339e-42
6.31475e-41
3.78563e-42
1.31034e-42
1.23531e-43
-3.29437e-41
3.04465e-42
-1.82963e-41
3.95378e-42
-5.56052e-42
-3.77233e-42
-1.05043e-40
-4.49027e-42
-3.75564e-42
1.53625e-43
1.65158e-41
5.79489e-43
1.71004e-41
7.25543e-44
1.62286e-42
8.48655e-43
1.62647e-41
8.16523e-43
4.22514e-45
-5.65283e-43
-1.61674e-41
-6.02935e-43
-7.63605e-43
-3.21934e-44
-9.28197e-44
-3.6534e-45
-3.93893e-45
-1.65304e-46
-2.7762e-46
-1.12927e-47
-1.07603e-47
-4.55147e-49
-5.62859e-49
-2.33651e-50
-2.00299e-50
-8.52635e-52
-8.54081e-52
-3.58995e-53
-2.79972e-53
-1.19624e-54
-1.02143e-54
-4.34513e-56
-3.09557e-56
-8.71381e-57
-1.98538e-57
-2.29198e-55
-3.36617e-56
-7.55855e-54
-1.19708e-54
-2.07968e-52
-3.6691e-53
-6.35783e-51
-1.22229e-51
-1.51566e-49
-3.33542e-50
-4.28167e-48
-1.04085e-48
-8.51272e-47
-2.47523e-47
-2.21199e-45
-7.255e-46
-3.42316e-44
-1.45561e-44
-8.09525e-43
-4.03324e-43
-8.30592e-42
-6.46683e-42
-1.70983e-40
-1.71392e-40
-5.40273e-40
-1.92146e-39
-4.77188e-38
1.66704e-38
7.78255e-35
-3.11996e-38
9.133e-37
-1.42721e-39
1.74788e-38
-2.61584e-40
2.59367e-40
-1.16244e-41
-4.04146e-43
-1.31737e-42
-5.28616e-43
8.81305e-44
1.91965e-42
1.93433e-43
4.22975e-44
-6.66097e-45
-9.98042e-43
1.62651e-43
-5.5902e-43
2.03187e-43
-1.89483e-43
-2.5711e-43
-3.34431e-42
-2.92698e-43
-1.3171e-43
-1.07187e-44
4.98738e-43
2.65479e-44
5.19004e-43
4.21885e-45
5.19334e-44
5.53726e-44
4.92362e-43
5.38472e-44
1.4086e-46
-2.62056e-44
-4.89236e-43
-2.87771e-44
-2.44338e-44
-1.52934e-45
-2.97721e-45
-1.7765e-46
-1.31347e-46
-8.00652e-48
-9.23273e-48
-5.50883e-49
-3.67599e-49
-2.20756e-50
-1.91516e-50
-1.13135e-51
-6.94371e-52
-4.09655e-53
-2.94833e-53
-1.71302e-54
-9.7895e-55
-5.65915e-56
-3.5568e-56
-3.85611e-57
-1.1132e-57
-6.42202e-56
-1.05994e-57
-1.97306e-54
-3.50527e-56
-6.43018e-53
-1.24305e-54
-1.76513e-51
-3.85281e-53
-5.34727e-50
-1.27486e-51
-1.28407e-48
-3.5351e-50
-3.6108e-47
-1.09033e-48
-7.35892e-46
-2.65481e-47
-1.91901e-44
-7.62974e-46
-3.1613e-43
-1.58666e-44
-7.64346e-42
-4.25428e-43
-9.32026e-41
-7.22208e-42
-2.08756e-39
-1.81083e-40
-1.54584e-38
-2.25325e-39
-5.06377e-38
-1.15592e-37
-2.56316e-35
1.05251e-37
2.44651e-37
3.31534e-39
5.44654e-38
2.06551e-40
2.0641e-39
4.83716e-42
1.81714e-40
2.63501e-44
6.75413e-42
-1.6345e-45
5.15738e-43
4.92082e-45
1.72413e-44
-2.41144e-46
-4.60729e-44
4.93215e-45
-2.64527e-44
6.05256e-45
-1.05704e-44
-7.87681e-45
-1.93515e-43
-8.92645e-45
-7.86834e-45
-4.16068e-46
2.31451e-44
7.53327e-46
2.43441e-44
1.2958e-46
2.42334e-45
1.65441e-45
2.311e-44
1.60884e-45
6.70692e-48
-7.46207e-46
-2.29607e-44
-8.26786e-46
-1.13883e-45
-4.5699e-47
-1.42235e-46
-5.29137e-48
-6.25241e-48
-2.45126e-49
-4.42729e-49
-1.67823e-50
-1.75386e-50
-6.85424e-52
-9.12284e-52
-3.49414e-53
-3.28456e-53
-1.28153e-54
-1.38532e-54
-5.33375e-56
-4.55938e-56
-2.98148e-57
-1.64074e-57
-4.1155e-56
-7.21924e-59
-1.46145e-54
-8.13281e-58
-4.4991e-53
-3.48173e-56
-1.49611e-51
-1.11623e-54
-4.10851e-50
-4.55594e-53
-1.27757e-48
-1.28631e-51
-3.06696e-47
-5.02342e-50
-8.93122e-46
-1.22399e-48
-1.81853e-44
-4.61009e-47
-4.9815e-43
-9.41361e-46
-8.19632e-42
-3.46303e-44
-2.13647e-40
-5.67344e-43
-2.60331e-39
-2.08734e-41
-6.65989e-38
-2.59206e-40
-4.93947e-37
-1.00092e-38
-8.89322e-38
-6.73209e-37
3.10364e-37
-2.75967e-37
-1.25215e-37
-1.4091e-38
4.61051e-38
-2.00811e-39
1.89954e-39
-9.04155e-41
1.75512e-40
-7.61082e-42
6.56012e-42
-3.15631e-43
4.15207e-43
-1.92226e-44
1.48432e-44
-7.53274e-46
-6.18731e-46
2.10673e-46
-7.49279e-46
2.88189e-46
-3.38767e-46
-3.64581e-46
-5.95229e-45
-4.08529e-46
-2.58306e-46
-1.99658e-47
6.68533e-46
2.94415e-47
7.07171e-46
5.12551e-48
7.31108e-47
6.61835e-47
6.70117e-46
6.43894e-47
2.07111e-49
-2.95311e-47
-6.65627e-46
-3.27412e-47
-3.43708e-47
-1.80034e-48
-4.27267e-48
-2.09864e-49
-1.93167e-49
-9.67397e-51
-1.35959e-50
-6.61203e-52
-5.4906e-52
-2.68357e-53
-2.83847e-53
-1.35895e-54
-1.03515e-54
-4.94509e-56
-4.33985e-56
-2.04107e-57
-1.43991e-57
-2.17401e-58
-5.17904e-59
-5.45058e-57
-1.59377e-59
-1.86485e-55
-5.06284e-58
-6.25993e-54
-2.34818e-56
-1.95418e-52
-7.31864e-55
-6.04961e-51
-3.22724e-53
-1.70174e-49
-8.78195e-52
-4.83762e-48
-3.71109e-50
-1.20467e-46
-8.64362e-49
-3.13004e-45
-3.53776e-47
-6.71249e-44
-6.87878e-46
-1.58634e-42
-2.79402e-44
-2.79367e-41
-4.69584e-43
-5.95453e-40
-2.12355e-41
-7.65033e-39
-5.02759e-40
-1.3607e-37
-2.66519e-38
-8.6802e-37
-5.5317e-35
-3.73564e-37
-6.89133e-37
-6.04917e-38
-5.15175e-37
-4.94425e-38
-7.06814e-38
-1.94363e-39
-2.7254e-39
-1.75378e-40
-2.2624e-40
-6.53963e-42
-8.611e-42
-4.1105e-43
-5.27208e-43
-1.47325e-44
-1.91576e-44
-7.91486e-46
-9.38064e-46
-5.56681e-47
-2.39341e-47
-1.63579e-47
-1.18704e-47
-2.7468e-46
-1.18065e-47
-1.21224e-47
-6.03529e-49
2.58852e-47
7.98849e-49
2.76689e-47
1.4438e-49
2.84768e-48
1.8148e-48
2.62372e-47
1.76427e-48
8.08694e-51
-8.05482e-49
-2.60611e-47
-8.96198e-49
-1.33861e-48
-5.07261e-50
-1.67611e-49
-5.87151e-51
-7.54521e-51
-2.76129e-52
-5.30148e-52
-1.87343e-53
-2.12908e-53
-7.7052e-55
-1.09334e-54
-3.87392e-56
-3.95858e-56
-1.4227e-57
-1.64368e-57
-1.15825e-58
-5.39684e-59
-2.14256e-57
1.6443e-60
-8.14282e-56
1.44224e-58
-2.75894e-54
5.34204e-57
-9.82764e-53
2.03145e-55
-3.00762e-51
6.86237e-54
-1.0034e-49
2.44516e-52
-2.7321e-48
7.45145e-51
-8.54688e-47
2.48898e-49
-2.02596e-45
6.73132e-48
-5.96259e-44
2.10703e-46
-1.19048e-42
4.87602e-45
-3.32125e-41
1.36804e-43
-5.28488e-40
1.82616e-42
-1.41698e-38
-1.64036e-41
-1.56807e-37
-6.49254e-39
-3.97606e-36
-4.7423e-37
-2.57281e-35
-6.48007e-37
-3.71368e-37
-3.02264e-37
-2.59538e-37
-1.50279e-38
-5.47153e-38
-2.10269e-39
-2.06852e-39
-9.37712e-41
-1.82149e-40
-7.83282e-42
-6.7929e-42
-3.2353e-43
-4.26656e-43
-1.98487e-44
-1.53199e-44
-7.60676e-46
-7.69019e-46
-3.72732e-47
-2.69615e-47
-1.00017e-48
-1.5641e-48
-4.62538e-49
-8.07805e-48
-4.53352e-49
-3.73479e-49
-2.32974e-50
7.08688e-49
2.68919e-50
7.62373e-49
4.88314e-51
8.07203e-50
6.18477e-50
7.22011e-49
6.01348e-50
2.31976e-52
-2.74561e-50
-7.17057e-49
-3.05347e-50
-3.79689e-50
-1.72045e-51
-4.71236e-51
-1.9874e-52
-2.16581e-52
-9.30045e-54
-1.5089e-53
-6.26705e-55
-6.14286e-55
-2.56142e-56
-3.12944e-56
-1.27535e-57
-1.14251e-57
-4.63331e-59
-4.70777e-59
1.91272e-60
-1.4716e-60
1.40395e-58
3.30028e-60
5.29553e-57
1.36288e-58
1.79255e-55
5.04583e-57
6.3148e-54
1.92123e-55
1.93165e-52
6.48851e-54
6.35422e-51
2.31545e-52
1.7303e-49
7.05301e-51
5.31485e-48
2.36025e-49
1.26071e-46
6.37867e-48
3.62062e-45
2.00129e-46
7.23852e-44
4.62763e-45
1.95113e-42
1.30339e-43
3.11012e-41
1.74974e-42
7.91083e-40
-1.41789e-41
8.74588e-39
-6.0993e-39
2.00839e-37
-4.4779e-37
-2.4445e-35
-3.82931e-38
-2.87217e-35
2.47905e-38
-4.0759e-37
4.98812e-40
-9.38654e-39
-7.50507e-41
-1.89337e-40
-4.99355e-42
-7.88488e-42
-6.10436e-43
-2.77296e-43
-2.75589e-44
-1.67785e-44
-1.90258e-45
-6.34143e-46
-7.53384e-47
-3.19739e-47
-3.90108e-48
-1.15919e-48
-1.3136e-49
-6.54489e-50
-1.71436e-50
-3.12995e-49
-1.25407e-50
-1.46161e-50
-6.62464e-52
2.36977e-50
6.90271e-52
2.57585e-50
1.2914e-52
2.71772e-51
1.60292e-51
2.4411e-50
1.55756e-51
7.7586e-54
-7.09566e-52
-2.42445e-50
-7.9122e-52
-1.27892e-51
-4.55691e-53
-1.5837e-52
-5.21338e-54
-7.24877e-54
-2.47561e-55
-5.0145e-55
-1.65272e-56
-2.03007e-56
-6.81541e-58
-1.02407e-57
-3.35648e-59
-3.71179e-59
1.64712e-60
-1.51393e-60
1.16813e-58
-1.3556e-61
4.33645e-57
-3.46583e-60
1.65001e-55
-1.40738e-58
5.59019e-54
-5.21037e-57
1.99193e-52
-1.98405e-55
6.09518e-51
-6.70036e-54
2.03423e-49
-2.39132e-52
5.5376e-48
-7.28358e-51
1.73309e-46
-2.43774e-49
4.10663e-45
-6.58735e-48
1.20921e-43
-2.06698e-46
2.41299e-42
-4.77687e-45
6.73541e-41
-1.34355e-43
1.07095e-39
-1.77723e-42
2.8728e-38
1.73704e-41
3.17576e-37
6.51568e-39
8.0554e-36
4.7656e-37
2.59619e-35
2.78287e-38
-5.21904e-37
-2.92001e-38
-2.18118e-37
-1.02763e-39
-4.52766e-39
-1.0818e-40
-7.57191e-41
-3.88901e-42
-1.73685e-42
-2.68337e-43
-4.45753e-44
-9.56913e-45
-2.35156e-45
-5.12602e-46
-8.48197e-47
-1.76009e-47
-4.2198e-48
-7.82287e-49
-1.46845e-49
-2.51695e-50
-6.61246e-51
-1.3508e-51
-8.82004e-51
-4.41318e-52
-4.25068e-52
-2.29086e-53
6.11999e-52
2.04625e-53
6.70062e-52
3.85349e-54
7.22614e-53
4.81444e-53
6.34455e-52
4.67877e-53
2.07098e-55
-2.13223e-53
-6.30075e-52
-2.37681e-53
-3.40338e-53
-1.36382e-54
-4.1659e-54
-1.54896e-55
-1.93644e-55
-7.32146e-57
-1.32573e-56
-4.83867e-58
-5.41743e-58
-1.9831e-59
-2.70685e-59
-9.66366e-61
-9.858e-61
2.80841e-63
-4.17992e-62
1.50997e-60
-8.83139e-62
5.59075e-59
-3.50215e-60
2.07854e-57
-1.42235e-58
7.02776e-56
-5.26556e-57
2.43173e-54
-2.00428e-55
7.43637e-53
-6.76849e-54
2.38939e-51
-2.41445e-52
6.51195e-50
-7.35408e-51
1.93777e-48
-2.45983e-49
4.60688e-47
-6.64719e-48
1.26519e-45
-2.084e-46
2.53953e-44
-4.8151e-45
6.39853e-43
-1.35134e-43
1.02578e-41
-1.77089e-42
2.32337e-40
1.91893e-41
2.57122e-39
6.66831e-39
4.45006e-38
4.85059e-37
2.62675e-35
-1.69359e-39
-5.26941e-37
1.76533e-39
-2.29436e-37
6.16079e-41
-4.60294e-39
5.9732e-42
-7.23225e-41
2.04945e-43
-1.07668e-42
1.29297e-44
-1.63333e-44
4.31358e-46
-4.57436e-46
2.10987e-47
-1.31851e-47
6.69588e-49
-5.65072e-49
2.71597e-50
-1.81732e-50
8.18567e-52
-7.1844e-52
1.8637e-53
-3.10827e-52
-9.83894e-54
-1.48554e-53
-5.55152e-55
1.80711e-53
4.96656e-55
2.00075e-53
9.56936e-56
2.1523e-54
1.17707e-54
1.89565e-53
1.14335e-54
6.09537e-57
-5.20168e-55
-1.88271e-53
-5.81069e-55
-1.01448e-54
-3.39099e-56
-1.23181e-55
-3.80684e-57
-5.70456e-57
-1.8184e-58
-3.86458e-58
-1.18874e-59
-1.57054e-59
-4.90708e-61
-7.75408e-61
-5.95298e-62
-2.80201e-62
-1.44741e-60
-5.08781e-64
-5.87525e-59
2.63484e-62
-2.17999e-57
1.06222e-60
-8.29462e-56
4.32003e-59
-2.81003e-54
1.59953e-57
-1.00128e-52
6.09869e-56
-3.06374e-51
2.05969e-54
-1.02253e-49
7.36274e-53
-2.7835e-48
2.24255e-51
-8.71209e-47
7.52176e-50
-2.06442e-45
2.03373e-48
-6.07956e-44
6.41697e-47
-1.21331e-42
1.5082e-45
-3.38745e-41
4.53169e-44
-5.3875e-40
9.2907e-43
-1.44567e-38
2.93488e-41
-1.59898e-37
7.0457e-40
-4.05743e-36
2.96091e-38
9.38912e-37
-2.96335e-38
-3.03488e-35
3.0902e-38
-4.28965e-37
1.07698e-39
-8.18011e-39
1.09039e-40
-1.19836e-40
3.82389e-42
-9.80764e-43
2.54296e-43
4.77422e-45
8.80117e-45
1.03665e-45
4.55725e-46
3.88494e-47
1.51639e-47
1.7687e-48
6.53167e-49
5.65614e-50
2.06138e-50
2.1511e-51
7.6707e-52
5.71389e-53
2.25062e-53
1.79206e-54
7.35266e-55
5.01284e-55
3.422e-56
4.92056e-55
3.18773e-57
5.36976e-56
3.17214e-56
4.64166e-55
3.08001e-56
1.51645e-58
-1.40164e-56
-4.60977e-55
-1.56544e-56
-2.53109e-56
-9.10962e-58
-3.03187e-57
-1.01171e-58
-1.42018e-58
-4.812e-60
-9.50692e-60
-3.10715e-61
-3.88661e-61
-1.27654e-62
-1.89803e-62
-2.25301e-63
-6.70973e-64
-6.62537e-62
6.90036e-64
-2.66122e-60
3.10462e-62
-9.85632e-59
1.24931e-60
-3.70083e-57
5.07035e-59
-1.25227e-55
1.87664e-57
-4.38885e-54
7.13737e-56
-1.34241e-52
2.40994e-54
-4.38685e-51
8.58847e-53
-1.19492e-49
2.6158e-51
-3.63866e-48
8.74027e-50
-8.63767e-47
2.36344e-48
-2.45147e-45
7.41848e-47
-4.90769e-44
1.74043e-45
-1.30046e-42
5.15627e-44
-2.07706e-41
1.01385e-42
-5.1403e-40
2.86902e-41
-5.68986e-39
4.4974e-40
-1.23365e-37
1.25245e-38
1.42627e-37
3.05743e-38
-3.47314e-37
-3.18891e-38
-2.22314e-37
-1.11867e-39
-4.21393e-39
-1.13627e-40
-5.93798e-41
-4.00668e-42
-2.58807e-44
-2.67312e-43
2.4838e-44
-9.29799e-45
2.18785e-45
-4.82945e-46
8.57066e-47
-1.61436e-47
4.4209e-48
-6.97418e-49
1.55544e-49
-2.21031e-50
6.59748e-51
-8.25109e-52
2.14775e-52
-2.46402e-53
7.85816e-54
-8.14736e-55
2.49818e-55
-2.253e-56
2.08649e-56
-6.19964e-58
1.65388e-57
7.12074e-58
1.24628e-56
7.08347e-58
4.16461e-60
-3.22159e-58
-1.23721e-56
-3.60417e-58
-6.78457e-58
-2.12507e-59
-8.03087e-59
-2.32913e-60
-3.74925e-60
-1.11596e-61
-2.47769e-61
-7.11798e-63
-1.00742e-62
-2.92025e-64
-4.85046e-64
6.82673e-67
1.02106e-67
5.90373e-64
7.62702e-64
2.42215e-62
3.30624e-62
9.09879e-61
1.33044e-60
3.48513e-59
5.40254e-59
1.19281e-57
1.9996e-57
4.26431e-56
7.61022e-56
1.3141e-54
2.56953e-54
4.38019e-53
9.1653e-53
1.19499e-51
2.79133e-51
3.71058e-50
9.33744e-50
8.73852e-49
2.52469e-48
2.52653e-47
7.93656e-47
4.93165e-46
1.86178e-45
1.32752e-44
5.52694e-44
1.99316e-43
1.08667e-42
4.98229e-42
3.08391e-41
4.7655e-41
4.83625e-40
1.06413e-39
1.35291e-38
1.5451e-37
3.04914e-38
-3.92225e-37
-3.2016e-38
-1.33412e-38
-1.13532e-39
1.48373e-39
-1.20035e-40
7.97812e-41
-4.34089e-42
7.85023e-42
-3.00387e-43
3.22605e-43
-1.07618e-44
2.05029e-44
-5.77741e-46
7.78067e-46
-1.99104e-47
3.91104e-47
-8.86823e-49
1.38175e-48
-2.89678e-50
5.83818e-50
-1.11287e-51
1.9195e-51
-3.42146e-53
7.0558e-53
-1.16239e-54
2.15996e-54
-3.35202e-56
7.09262e-56
-1.0231e-57
2.04795e-57
-9.83828e-60
3.46479e-58
1.65652e-59
1.6763e-60
-7.89975e-60
-2.84988e-58
-8.81623e-60
-1.58679e-59
-5.18735e-61
-1.8501e-60
-5.61044e-62
-8.7089e-62
-2.67741e-63
-5.67957e-63
-1.6752e-64
-2.31673e-64
3.16178e-65
-1.11134e-65
1.64891e-63
-4.28941e-66
6.61853e-62
-1.69062e-64
2.65317e-60
-7.27195e-63
9.80568e-59
-2.92288e-61
3.67375e-57
-1.17693e-59
1.24087e-55
-4.35286e-58
4.34023e-54
-1.63919e-56
1.32583e-52
-5.53337e-55
4.3254e-51
-1.94728e-53
1.17767e-49
-5.93292e-52
3.58178e-48
-1.95024e-50
8.51134e-47
-5.27701e-49
2.4145e-45
-1.61818e-47
4.85142e-44
-3.76412e-46
1.28654e-42
-1.04247e-44
2.07315e-41
-1.61602e-43
5.14367e-40
-1.10044e-42
5.80079e-39
2.60028e-40
1.25903e-37
1.85604e-38
8.93114e-37
-4.16664e-38
2.02208e-37
2.52906e-38
-1.59903e-37
4.2742e-40
5.67853e-38
-1.07499e-40
2.35481e-39
-6.63775e-42
2.17762e-40
-7.75253e-43
8.16485e-42
-3.46005e-44
5.13459e-43
-2.36171e-45
1.84356e-44
-9.30801e-47
9.23251e-46
-4.80564e-48
3.14019e-47
-1.72447e-49
1.32462e-48
-7.34453e-51
4.23718e-50
-2.42405e-52
1.55604e-51
-8.89774e-54
4.6664e-53
-2.71494e-55
1.52471e-54
-8.81695e-57
4.2819e-56
-2.49174e-58
1.27069e-57
-6.91968e-60
3.32314e-59
-3.62488e-61
-6.05703e-60
-1.96073e-61
-3.64915e-61
-1.14776e-62
-4.3915e-62
-1.21314e-63
-2.07393e-63
-5.76541e-65
-1.33818e-64
1.67629e-65
-5.47477e-66
8.86855e-64
-2.16327e-66
3.8451e-62
-8.81376e-65
1.55031e-60
-3.8332e-63
6.2999e-59
-1.66067e-61
2.33759e-57
-6.68406e-60
8.90004e-56
-2.715e-58
3.0151e-54
-1.00508e-56
1.07525e-52
-3.82632e-55
3.28996e-51
-1.29214e-53
1.09922e-49
-4.61027e-52
2.9921e-48
-1.4042e-50
9.37816e-47
-4.69836e-49
2.22214e-45
-1.26995e-47
6.55633e-44
-3.98751e-46
1.30843e-42
-9.27428e-45
3.66249e-41
-2.67014e-43
5.82563e-40
-4.2918e-42
1.56914e-38
-4.66142e-41
1.73657e-37
6.18945e-39
4.43423e-36
4.99496e-37
2.84645e-35
-7.04803e-37
-3.1502e-35
-4.37475e-37
9.0473e-38
-2.0672e-38
5.98804e-38
-2.78998e-39
2.34495e-39
-1.21941e-40
2.10973e-40
-1.00237e-41
7.86301e-42
-4.09918e-43
4.94084e-43
-2.49375e-44
1.77033e-44
-9.50088e-46
8.86741e-46
-4.66888e-47
3.01175e-47
-1.65386e-48
1.27062e-48
-6.89394e-50
4.06008e-50
-2.27021e-51
1.49112e-51
-8.2752e-53
4.46793e-53
-2.53539e-54
1.45989e-54
-8.24753e-56
4.09705e-56
-2.35398e-57
1.20929e-57
-6.93034e-59
3.17774e-59
-1.84931e-60
7.05671e-61
-5.39692e-62
1.25942e-62
-1.48999e-63
-4.36381e-64
-5.7344e-65
-3.32072e-65
-2.51536e-66
-2.5914e-66
-2.44718e-65
-1.24824e-67
-1.06155e-63
-6.77488e-67
-4.59675e-62
-3.10697e-65
-1.8531e-60
-1.35171e-63
-7.52013e-59
-5.86114e-62
-2.7901e-57
-2.35952e-60
-1.06048e-55
-9.59422e-59
-3.59254e-54
-3.55223e-57
-1.27842e-52
-1.35407e-55
-3.91177e-51
-4.57294e-54
-1.30336e-49
-1.6342e-52
-3.5482e-48
-4.97748e-51
-1.10813e-46
-1.66889e-49
-2.62611e-45
-4.51261e-48
-7.71132e-44
-1.42342e-46
-1.53915e-42
-3.34872e-45
-4.28011e-41
-1.00882e-43
-6.8075e-40
-2.10487e-42
-1.81608e-38
-6.91716e-41
-2.0077e-37
-1.8884e-39
-5.04406e-36
-8.68829e-38
-3.16021e-36
-6.62076e-35
6.60638e-35
-9.36278e-37
8.84541e-37
-6.21474e-37
-4.09532e-38
-8.51261e-38
-2.06062e-39
-3.28112e-39
-2.07955e-40
-2.72141e-40
-7.84695e-42
-1.0355e-41
-4.94996e-43
-6.33688e-43
-1.7743e-44
-2.30215e-44
-8.88591e-46
-1.13575e-45
-3.01764e-47
-3.88909e-47
-1.27283e-48
-1.62494e-48
-4.06666e-50
-5.21713e-50
-1.4933e-51
-1.90375e-51
-4.47402e-53
-5.7199e-53
-1.46171e-54
-1.8607e-54
-4.10181e-56
-5.22956e-56
-1.21043e-57
-1.53854e-57
-3.18091e-59
-4.04615e-59
-8.60443e-61
-1.08788e-60
-2.12894e-62
-2.67909e-62
-5.44324e-64
-6.63692e-64
-1.30663e-65
-1.67425e-65
-3.37762e-67
-6.58104e-65
5.7107e-68
-2.85102e-63
3.06972e-66
-1.23545e-61
1.41796e-64
-4.98132e-60
6.16766e-63
-2.02326e-58
2.67222e-61
-7.50759e-57
1.07558e-59
-2.8566e-55
4.36922e-58
-9.67791e-54
1.6175e-56
-3.44849e-52
6.15835e-55
-1.05521e-50
2.07968e-53
-3.52173e-49
7.42096e-52
-9.58684e-48
2.26028e-50
-3.00046e-46
7.56322e-49
-7.10978e-45
2.04361e-47
-2.09361e-43
6.40859e-46
-4.17797e-42
1.47815e-44
-1.1663e-40
4.12437e-43
-1.8546e-39
5.07799e-42
-4.97559e-38
-9.34459e-41
-5.5013e-37
-2.32882e-38
-1.39565e-35
-1.67643e-36
-9.04216e-35
-7.3974e-37
3.42314e-35
-4.01032e-37
8.98262e-37
-1.93872e-38
-4.23206e-38
-2.65981e-39
-2.13472e-39
-1.17344e-40
-2.15153e-40
-9.71794e-42
-8.14175e-42
-3.99283e-43
-5.13574e-43
-2.43869e-44
-1.84467e-44
-9.31701e-46
-9.23827e-46
-4.58969e-47
-3.14206e-47
-1.6288e-48
-1.32532e-48
-6.80064e-50
-4.23928e-50
-2.24241e-51
-1.55674e-51
-8.18351e-53
-4.66835e-53
-2.50973e-54
-1.52528e-54
-8.17133e-56
-4.28335e-56
-2.33399e-57
-1.26411e-57
-6.87704e-59
-3.32394e-59
-1.83216e-60
-8.95776e-61
-4.93602e-62
-2.20652e-62
-1.2284e-63
-5.47561e-64
-3.0484e-65
-1.26502e-65
-2.27732e-67
-2.90576e-67
2.22657e-65
2.52676e-68
9.7042e-64
1.47844e-66
4.20492e-62
6.83019e-65
1.69531e-60
2.97113e-63
6.88543e-59
1.28747e-61
2.55478e-57
5.18245e-60
9.7204e-56
2.10558e-58
3.29301e-54
7.79533e-57
1.17335e-52
2.96851e-55
3.5902e-51
1.00251e-53
1.19821e-49
3.57807e-52
3.26171e-48
1.08982e-50
1.02085e-46
3.64751e-49
2.41903e-45
9.85295e-48
7.12361e-44
3.08729e-46
1.4217e-42
7.07273e-45
3.96909e-41
1.92278e-43
6.31285e-40
1.74331e-42
1.69387e-38
-1.10014e-40
1.87365e-37
-1.63685e-38
4.7537e-36
-1.14444e-36
-6.0756e-35
-7.66052e-38
1.16693e-36
6.17383e-38
5.13988e-37
1.71952e-39
8.31925e-39
2.35323e-41
6.93101e-41
-1.99409e-42
-6.09479e-42
-4.66373e-43
-3.07322e-43
-2.38321e-44
-2.06019e-44
-1.8042e-45
-7.86181e-46
-7.44306e-47
-3.95261e-47
-4.00248e-48
-1.39507e-48
-1.46998e-49
-5.88848e-50
-6.39732e-51
-1.93439e-51
-2.1415e-52
-7.10519e-53
-7.96618e-54
-2.17343e-54
-2.45406e-55
-7.10329e-56
-8.04227e-57
-2.0251e-57
-2.29215e-58
-5.97945e-59
-6.7444e-60
-1.59066e-60
-1.78476e-61
-4.28963e-62
-4.77595e-63
-1.06616e-63
-1.17656e-64
-2.64733e-65
-2.85871e-66
-6.15677e-67
1.37552e-66
-1.5517e-68
6.66193e-65
-6.67981e-68
2.90151e-63
-3.11136e-66
1.2573e-61
-1.43723e-64
5.06919e-60
-6.25159e-63
2.05892e-58
-2.70894e-61
7.6396e-57
-1.09037e-59
2.90685e-55
-4.43006e-58
9.84774e-54
-1.64003e-56
3.5091e-52
-6.24547e-55
1.07372e-50
-2.10909e-53
3.5837e-49
-7.52801e-52
9.75542e-48
-2.29288e-50
3.0535e-46
-7.67574e-49
7.23557e-45
-2.07496e-47
2.13096e-43
-6.52316e-46
4.25277e-42
-1.52237e-44
1.18744e-40
-4.44315e-43
1.88854e-39
-7.80118e-42
5.06833e-38
-1.4803e-40
5.60588e-37
4.50001e-39
1.42282e-35
4.51297e-37
2.80544e-35
-1.82448e-39
3.508e-35
1.70707e-39
5.04259e-37
6.6268e-41
1.00116e-38
1.47643e-42
1.543e-40
-2.44105e-44
1.85594e-42
-1.36964e-44
1.3101e-44
-7.50937e-46
-6.84299e-46
-5.98097e-47
-3.8562e-47
-2.56299e-48
-2.39975e-48
-1.39947e-49
-9.19674e-50
-5.2773e-51
-4.2132e-51
-2.31113e-52
-1.44027e-52
-7.88715e-54
-5.51591e-54
-2.94269e-55
-1.72268e-55
-9.19591e-57
-5.75246e-57
-3.01819e-58
-1.656e-58
-8.69398e-60
-4.93657e-60
-2.56004e-61
-1.31656e-61
-6.82735e-63
-3.55687e-63
-1.82746e-64
-8.81778e-65
-4.52697e-66
-2.18139e-66
-1.22107e-67
-5.04062e-68
-5.15573e-67
-1.63211e-69
-2.37001e-65
-2.37491e-68
-1.03211e-63
-1.11017e-66
-4.47193e-62
-5.12811e-65
-1.80285e-60
-2.23058e-63
-7.32177e-59
-9.66538e-62
-2.71653e-57
-3.89035e-60
-1.03353e-55
-1.58058e-58
-3.50116e-54
-5.85134e-57
-1.24747e-52
-2.22823e-55
-3.81686e-51
-7.52468e-54
-1.27382e-49
-2.68573e-52
-3.46751e-48
-8.18027e-51
-1.08526e-46
-2.73851e-49
-2.57171e-45
-7.40511e-48
-7.57343e-44
-2.33074e-46
-1.51161e-42
-5.47798e-45
-4.22037e-41
-1.63958e-43
-6.71393e-40
-3.35095e-42
-1.8017e-38
-1.04816e-40
-1.99377e-37
-2.48403e-39
-5.05886e-36
-1.04928e-37
-3.45647e-36
-3.26651e-38
1.1914e-36
3.40531e-38
2.84611e-37
1.1775e-39
6.20701e-39
1.19007e-40
1.08022e-40
4.14894e-42
2.59466e-42
2.7529e-43
6.29365e-44
9.47845e-45
2.80004e-45
4.89573e-46
8.96274e-47
1.62133e-47
3.87294e-48
6.96584e-49
1.21613e-49
2.18886e-50
4.56398e-51
8.12736e-52
1.35559e-52
2.40735e-53
4.49681e-54
7.91744e-55
1.25654e-55
2.20388e-56
3.74855e-57
6.52861e-58
9.83563e-59
1.7056e-59
2.67155e-60
4.60506e-61
6.57769e-62
1.12871e-62
1.64124e-63
2.8015e-64
3.79152e-65
6.44212e-66
8.74717e-67
1.16257e-67
1.89915e-68
-1.4806e-66
1.79767e-69
-6.85647e-65
6.8485e-68
-2.98638e-63
3.20446e-66
-1.29427e-61
1.48027e-64
-5.21858e-60
6.43901e-63
-2.11997e-58
2.7902e-61
-7.86652e-57
1.12311e-59
-2.9938e-55
4.56313e-58
-1.01427e-53
1.68933e-56
-3.61507e-52
6.43325e-55
-1.10617e-50
2.17255e-53
-3.69306e-49
7.75443e-52
-1.00531e-47
2.36184e-50
-3.14778e-46
7.90574e-49
-7.45872e-45
2.13611e-47
-2.19766e-43
6.70151e-46
-4.38555e-42
1.54559e-44
-1.22524e-40
4.31439e-43
-1.94837e-39
5.3018e-42
-5.23333e-38
-9.88419e-41
-5.7872e-37
-2.44907e-38
-1.47108e-35
-1.76457e-36
-9.53302e-35
7.68897e-38
1.35674e-36
-8.02102e-38
8.03904e-37
-2.8268e-39
1.5836e-38
-2.8645e-40
2.44345e-40
-1.01186e-41
3.44407e-42
-6.73559e-43
5.2098e-44
-2.34427e-44
1.83507e-45
-1.21524e-45
6.53666e-47
-4.06222e-47
3.50493e-48
-1.75192e-48
1.28246e-49
-5.55042e-50
5.68043e-51
-2.06885e-51
1.90356e-52
-6.17305e-53
7.16269e-54
-2.03802e-54
2.20971e-55
-5.71038e-56
7.29695e-57
-1.69798e-57
2.08303e-58
-4.46226e-59
6.16193e-60
-1.20922e-60
1.63329e-61
-2.97965e-62
4.38772e-63
-7.42179e-64
1.08265e-64
-1.71499e-65
2.66661e-66
-3.73488e-67
6.13808e-68
1.00508e-66
1.75002e-69
4.68438e-65
1.74735e-68
2.04047e-63
8.16058e-67
8.84405e-62
3.7677e-65
3.56621e-60
1.63846e-63
1.44885e-58
7.09564e-62
5.37654e-57
2.85541e-60
2.04637e-55
1.15933e-58
6.93323e-54
4.29105e-57
2.47139e-52
1.63277e-55
7.56238e-51
5.51293e-54
2.52504e-49
1.96581e-52
6.8736e-48
5.98652e-51
2.15245e-46
2.0014e-49
5.10014e-45
5.40582e-48
1.50288e-43
1.69155e-46
2.99881e-42
3.87599e-45
8.37911e-41
1.05269e-43
1.33218e-39
9.68124e-43
3.57883e-38
-5.86991e-41
3.95612e-37
-8.79715e-39
1.00605e-35
-6.13361e-37
-3.2404e-35
1.0718e-37
1.08616e-34
-1.12023e-37
1.52873e-36
-3.9253e-39
3.08762e-38
-4.03101e-40
5.12377e-40
-1.42837e-41
1.17667e-41
-9.63258e-43
3.2692e-43
-3.37542e-44
1.84755e-44
-1.77142e-45
7.10975e-46
-5.973e-47
3.67758e-47
-2.60663e-48
1.3299e-48
-8.33932e-50
5.74078e-50
-3.14444e-51
1.91822e-51
-9.48049e-53
7.15526e-53
-3.16568e-54
2.21564e-54
-8.96619e-56
7.3225e-56
-2.6962e-57
2.10684e-57
-7.16404e-59
6.27355e-59
-1.96315e-60
1.68086e-60
-4.89165e-62
4.56276e-62
-1.23205e-63
1.1405e-63
-2.87913e-65
2.84624e-65
-6.48794e-67
6.64768e-67
1.01318e-66
1.44594e-68
4.74839e-65
-4.33286e-68
2.068e-63
-2.04298e-66
8.95951e-62
-9.43271e-65
3.61223e-60