/*--------------------------------*- C++ -*----------------------------------*\
| =========                 |                                                 |
| \\      /  F ield         | OpenFOAM: The Open Source CFD Toolbox           |
|  \\    /   O peration     | Version:  2.4.0                                 |
|   \\  /    A nd           | Web:      www.OpenFOAM.org                      |
|    \\/     M anipulation  |                                                 |
\*---------------------------------------------------------------------------*/
FoamFile
{
    version     2.0;
    format      ascii;
    class       volVectorField;
    location    "0.85";
    object      U;
}
// * * * * * * * * * * * * * * * * * * * * * * * * * * * * * * * * * * * * * //

dimensions      [0 1 -1 0 0 0 0];

internalField   nonuniform List<vector> 
1915
(
(2.51254e-40 -4.16122e-38 0)
(4.25384e-39 -7.58991e-39 0)
(2.12981e-39 -3.20561e-37 0)
(3.81528e-38 -5.86234e-38 0)
(1.3888e-38 -2.24543e-36 0)
(2.76216e-37 -4.10428e-37 0)
(8.28317e-38 -1.50148e-35 0)
(1.89834e-36 -2.74053e-36 0)
(4.43219e-37 -9.44668e-35 0)
(1.24309e-35 -1.7249e-35 0)
(1.97503e-36 -5.67986e-34 0)
(7.60616e-35 -1.03444e-34 0)
(6.58433e-36 -3.13047e-33 0)
(4.40565e-34 -5.71754e-34 0)
(4.80274e-36 -1.67666e-32 0)
(2.28261e-33 -3.03098e-33 0)
(-9.43571e-35 -7.62875e-32 0)
(1.11261e-32 -1.39372e-32 0)
(-7.0853e-34 -3.75723e-31 0)
(4.05408e-32 -6.48678e-32 0)
(-1.03947e-35 -3.42561e-36 0)
(-8.86293e-35 -2.23872e-35 0)
(-4.36581e-34 -1.49891e-34 0)
(-4.1091e-33 -1.11375e-34 0)
(-3.75184e-33 2.8794e-34 0)
(3.75184e-33 2.8794e-34 0)
(4.1091e-33 -1.11375e-34 0)
(4.3659e-34 -1.49888e-34 0)
(8.87747e-35 -2.23917e-35 0)
(1.08404e-35 -3.75517e-36 0)
(1.55779e-36 -4.64065e-37 0)
(1.78754e-37 -5.91499e-38 0)
(-2.31053e-42 -1.28674e-38 0)
(-1.78779e-37 -5.91567e-38 0)
(-1.55804e-36 -4.64135e-37 0)
(-1.08427e-35 -3.75587e-36 0)
(-8.87966e-35 -2.23982e-35 0)
(-4.36774e-34 -1.49947e-34 0)
(-4.11068e-33 -1.11846e-34 0)
(-3.76287e-33 2.84125e-34 0)
(3.66149e-33 2.65078e-34 0)
(3.66149e-33 -2.65078e-34 0)
(-3.76287e-33 -2.84125e-34 0)
(-4.11068e-33 1.11846e-34 0)
(-4.36774e-34 1.49947e-34 0)
(-8.87969e-35 2.23981e-35 0)
(-1.08451e-35 3.75516e-36 0)
(-1.58023e-36 4.57569e-37 0)
(-3.64267e-37 -6.27807e-40 0)
(-1.59938e-36 -4.6336e-37 0)
(-1.10041e-35 -3.80712e-36 0)
(-9.01715e-35 -2.2803e-35 0)
(-4.46034e-34 -1.53232e-34 0)
(-4.18843e-33 -1.30423e-34 0)
(-4.1091e-33 1.57099e-34 0)
(-2.07297e-39 3.07404e-34 0)
(4.10908e-33 1.57094e-34 0)
(4.18827e-33 -1.30467e-34 0)
(4.44415e-34 -1.53327e-34 0)
(8.24384e-35 -2.03481e-35 0)
(-4.2802e-36 1.54801e-36 0)
(-3.22648e-35 1.19943e-35 0)
(-1.52805e-34 8.01436e-35 0)
(-9.07547e-34 5.93221e-35 0)
(-7.83087e-34 -1.5363e-34 0)
(7.83087e-34 -1.5363e-34 0)
(9.07548e-34 5.9322e-35 0)
(1.52811e-34 8.0143e-35 0)
(3.23395e-35 1.201e-35 0)
(4.6009e-36 1.90069e-36 0)
(6.87743e-37 2.24075e-37 0)
(8.44968e-38 2.69206e-38 0)
(-1.245e-42 5.58497e-39 0)
(-8.45097e-38 2.69232e-38 0)
(-6.87871e-37 2.24103e-37 0)
(-4.60209e-36 1.90099e-36 0)
(-3.23502e-35 1.20128e-35 0)
(-1.52898e-34 8.017e-35 0)
(-9.08247e-34 5.95489e-35 0)
(-7.87775e-34 -1.51702e-34 0)
(7.50049e-34 -1.41393e-34 0)
(7.50049e-34 1.41393e-34 0)
(-7.87775e-34 1.51702e-34 0)
(-9.08247e-34 -5.95489e-35 0)
(-1.52898e-34 -8.017e-35 0)
(-3.23503e-35 -1.20128e-35 0)
(-4.60329e-36 -1.90069e-36 0)
(-6.98698e-37 -2.21258e-37 0)
(-1.72414e-37 2.6148e-40 0)
(-7.07983e-37 2.23783e-37 0)
(-4.67823e-36 1.9245e-36 0)
(-3.29513e-35 1.22099e-35 0)
(-1.568e-34 8.18438e-35 0)
(-9.35899e-34 6.96313e-35 0)
(-9.07548e-34 -8.37958e-35 0)
(-1.13125e-39 -1.64141e-34 0)
(9.07537e-34 -8.37938e-35 0)
(9.35815e-34 6.96423e-35 0)
(1.56042e-34 8.17352e-35 0)
(2.90915e-35 9.05806e-36 0)
(-1.32003e-36 6.79935e-37 0)
(-8.40675e-36 4.94311e-36 0)
(-3.10349e-35 2.60946e-35 0)
(-1.43731e-34 1.7589e-35 0)
(-1.19951e-34 -4.95986e-35 0)
(1.19951e-34 -4.95987e-35 0)
(1.43731e-34 1.75889e-35 0)
(3.10358e-35 2.60942e-35 0)
(8.42158e-36 4.94922e-36 0)
(1.36552e-36 8.42252e-37 0)
(2.26175e-37 1.0887e-37 0)
(2.9702e-38 1.37075e-38 0)
(-5.17753e-43 2.99407e-39 0)
(-2.97072e-38 1.37091e-38 0)
(-2.26226e-37 1.08886e-37 0)
(-1.36598e-36 8.42414e-37 0)
(-8.42556e-36 4.95074e-36 0)
(-3.10664e-35 2.61079e-35 0)
(-1.43961e-34 1.76993e-35 0)
(-1.21347e-34 -4.87427e-35 0)
(1.11299e-34 -4.45391e-35 0)
(1.11299e-34 4.45391e-35 0)
(-1.21347e-34 4.87427e-35 0)
(-1.43961e-34 -1.76993e-35 0)
(-3.10664e-35 -2.61079e-35 0)
(-8.42561e-36 -4.95072e-36 0)
(-1.36644e-36 -8.42251e-37 0)
(-2.30248e-37 -1.07359e-37 0)
(-6.07221e-38 1.44376e-40 0)
(-2.33671e-37 1.08708e-37 0)
(-1.39261e-36 8.54286e-37 0)
(-8.62122e-36 5.04587e-36 0)
(-3.22018e-35 2.68398e-35 0)
(-1.50987e-34 2.17925e-35 0)
(-1.43731e-34 -2.77081e-35 0)
(-2.72937e-40 -5.39002e-35 0)
(1.43729e-34 -2.77069e-35 0)
(1.50971e-34 2.17993e-35 0)
(3.20634e-35 2.6802e-35 0)
(7.89687e-36 3.73477e-36 0)
(-2.91645e-37 2.31127e-37 0)
(-1.59787e-36 1.56571e-36 0)
(-4.6011e-36 7.62587e-36 0)
(-1.75083e-35 4.96018e-36 0)
(-1.42602e-35 -1.44887e-35 0)
(1.42602e-35 -1.44887e-35 0)
(1.75083e-35 4.96017e-36 0)
(4.60111e-36 7.62584e-36 0)
(1.59948e-36 1.56865e-36 0)
(2.92647e-37 2.88564e-37 0)
(5.26896e-38 3.96556e-38 0)
(7.32572e-39 5.26897e-39 0)
(-1.46235e-43 1.19937e-39 0)
(-7.32719e-39 5.26964e-39 0)
(-5.27035e-38 3.96624e-38 0)
(-2.92769e-37 2.88631e-37 0)
(-1.60051e-36 1.56926e-36 0)
(-4.60868e-36 7.63111e-36 0)
(-1.7562e-35 5.00042e-36 0)
(-1.45604e-35 -1.41949e-35 0)
(1.26069e-35 -1.28798e-35 0)
(1.26069e-35 1.28798e-35 0)
(-1.45604e-35 1.41949e-35 0)
(-1.7562e-35 -5.00042e-36 0)
(-4.60868e-36 -7.63111e-36 0)
(-1.60052e-36 -1.56925e-36 0)
(-2.92892e-37 -2.88563e-37 0)
(-5.37395e-38 -3.90498e-38 0)
(-1.50015e-38 5.96842e-41 0)
(-5.46152e-38 3.95883e-38 0)
(-2.99313e-37 2.9316e-37 0)
(-1.64566e-36 1.60363e-36 0)
(-4.8476e-36 7.87942e-36 0)
(-1.88613e-35 6.27524e-36 0)
(-1.75083e-35 -8.17797e-36 0)
(-4.29413e-41 -1.58393e-35 0)
(1.75079e-35 -8.1777e-36 0)
(1.88597e-35 6.27638e-36 0)
(4.83478e-36 7.86083e-36 0)
(1.5621e-36 1.17098e-36 0)
(-5.81193e-38 5.47485e-38 0)
(-2.74627e-37 3.54565e-37 0)
(-5.61289e-37 1.6114e-36 0)
(-1.5956e-36 1.01229e-36 0)
(-1.26239e-36 -3.05979e-36 0)
(1.26239e-36 -3.05979e-36 0)
(1.5956e-36 1.01229e-36 0)
(5.61235e-37 1.61142e-36 0)
(2.74516e-37 3.55454e-37 0)
(5.59887e-38 6.91054e-38 0)
(1.09116e-38 9.97656e-39 0)
(1.59123e-39 1.37798e-39 0)
(-3.57485e-44 3.23818e-40 0)
(-1.59158e-39 1.37817e-39 0)
(-1.09149e-38 9.9785e-39 0)
(-5.60169e-38 6.91241e-38 0)
(-2.74747e-37 3.55618e-37 0)
(-5.62883e-37 1.6128e-36 0)
(-1.60675e-36 1.02243e-36 0)
(-1.32003e-36 -2.9893e-36 0)
(9.76729e-37 -2.69419e-36 0)
(9.76729e-37 2.69419e-36 0)
(-1.32003e-36 2.9893e-36 0)
(-1.60675e-36 -1.02243e-36 0)
(-5.62883e-37 -1.6128e-36 0)
(-2.7475e-37 -3.55616e-37 0)
(-5.60455e-38 -6.91053e-38 0)
(-1.11489e-38 -9.81292e-39 0)
(-3.26357e-39 1.64802e-41 0)
(-1.13455e-38 9.95793e-39 0)
(-5.74332e-38 7.03011e-38 0)
(-2.84018e-37 3.64212e-37 0)
(-6.07726e-37 1.67176e-36 0)
(-1.82363e-36 1.3074e-36 0)
(-1.5956e-36 -1.74348e-36 0)
(-2.85014e-42 -3.3638e-36 0)
(1.59559e-36 -1.74344e-36 0)
(1.82382e-36 1.30744e-36 0)
(6.09106e-37 1.66606e-36 0)
(2.83845e-37 2.61561e-37 0)
(-1.03157e-38 1.15084e-38 0)
(-4.31166e-38 7.16172e-38 0)
(-5.98257e-38 3.1235e-37 0)
(-9.33244e-38 1.92081e-37 0)
(-6.86604e-38 -5.93596e-37 0)
(6.86605e-38 -5.93596e-37 0)
(9.3324e-38 1.92084e-37 0)
(5.98123e-38 3.12372e-37 0)
(4.30319e-38 7.19116e-38 0)
(9.60849e-39 1.46731e-38 0)
(1.99294e-39 2.20233e-39 0)
(3.02095e-40 3.14685e-40 0)
(-7.4886e-45 7.59059e-41 0)
(-3.02168e-40 3.14733e-40 0)
(-1.99361e-39 2.20281e-39 0)
(-9.61415e-39 1.46775e-38 0)
(-4.30771e-38 7.19501e-38 0)
(-6.01257e-38 3.12687e-37 0)
(-9.53628e-38 1.94324e-37 0)
(-7.85824e-38 -5.78608e-37 0)
(2.35897e-38 -5.19444e-37 0)
(2.35897e-38 5.19444e-37 0)
(-7.85824e-38 5.78608e-37 0)
(-9.53628e-38 -1.94324e-37 0)
(-6.01257e-38 -3.12687e-37 0)
(-4.30778e-38 -7.19496e-38 0)
(-9.61988e-39 -1.4673e-38 0)
(-2.03945e-39 -2.16396e-39 0)
(-6.20427e-40 3.93897e-42 0)
(-2.07778e-39 2.19787e-39 0)
(-9.88224e-39 1.49449e-38 0)
(-4.4758e-38 7.38367e-38 0)
(-6.76954e-38 3.25119e-37 0)
(-1.28473e-37 2.51248e-37 0)
(-9.3324e-38 -3.40387e-37 0)
(5.46301e-43 -6.54719e-37 0)
(9.33327e-38 -3.40386e-37 0)
(1.28584e-37 2.51192e-37 0)
(6.84974e-38 3.23605e-37 0)
(4.69216e-38 5.21176e-38 0)
(-1.37302e-39 1.87551e-39 0)
(-6.49589e-39 1.23121e-38 0)
(-5.95169e-39 5.37436e-38 0)
(1.9149e-39 3.24495e-38 0)
(2.645e-39 -1.02373e-37 0)
(-2.64349e-39 -1.02372e-37 0)
(-1.90659e-39 3.24629e-38 0)
(5.99787e-39 5.38334e-38 0)
(6.52669e-39 1.2856e-38 0)
(1.55817e-39 2.72669e-39 0)
(3.39072e-40 4.22752e-40 0)
(5.29526e-41 6.20909e-41 0)
(-1.42346e-45 1.53075e-41 0)
(-5.29664e-41 6.2101e-41 0)
(-3.39197e-40 4.22851e-40 0)
(-1.55921e-39 2.72761e-39 0)
(-6.53482e-39 1.28637e-38 0)
(-6.05288e-39 5.38955e-38 0)
(1.55928e-39 3.28934e-38 0)
(1.03046e-39 -9.95827e-38 0)
(-9.51768e-39 -8.90851e-38 0)
(-9.51768e-39 8.90851e-38 0)
(1.03046e-39 9.95827e-38 0)
(1.55928e-39 -3.28934e-38 0)
(-6.05289e-39 -5.38955e-38 0)
(-6.53495e-39 -1.28636e-38 0)
(-1.56026e-39 -2.72668e-39 0)
(-3.4744e-40 -4.15011e-40 0)
(-1.08876e-40 8.07159e-43 0)
(-3.54304e-40 4.21836e-40 0)
(-1.60609e-39 2.78012e-39 0)
(-6.81913e-39 1.32242e-38 0)
(-7.26375e-39 5.61917e-38 0)
(-3.35421e-39 4.29605e-38 0)
(1.90663e-39 -5.90357e-38 0)
(2.75866e-43 -1.13244e-37 0)
(-1.90355e-39 -5.90368e-38 0)
(3.38418e-39 4.29396e-38 0)
(7.47232e-39 5.58606e-38 0)
(7.4641e-39 9.1888e-39 0)
(5.96654e-39 6.45126e-40 0)
(1.65705e-40 -1.53287e-39 0)
(-1.54424e-40 8.13259e-39 0)
(1.69608e-39 5.10893e-39 0)
(1.48003e-39 -1.66443e-38 0)
(-1.46912e-39 -1.6636e-38 0)
(-1.62778e-39 5.19378e-39 0)
(6.00216e-40 8.73978e-39 0)
(9.49619e-40 2.14451e-39 0)
(2.37796e-40 4.69513e-40 0)
(5.35968e-41 7.46996e-41 0)
(8.56884e-42 1.12231e-41 0)
(-2.46353e-46 2.81652e-42 0)
(-8.5712e-42 1.1225e-41 0)
(-5.3618e-41 7.47183e-41 0)
(-2.3797e-40 4.69684e-40 0)
(-9.50961e-40 2.14594e-39 0)
(-6.09118e-40 8.75101e-39 0)
(1.57294e-39 5.26998e-39 0)
(1.22353e-39 -1.61543e-38 0)
(-2.47482e-39 -1.44144e-38 0)
(-2.47482e-39 1.44144e-38 0)
(1.22353e-39 1.61543e-38 0)
(1.57294e-39 -5.26998e-39 0)
(-6.09121e-40 -8.75101e-39 0)
(-9.50982e-40 -2.14592e-39 0)
(-2.38146e-40 -4.69511e-40 0)
(-5.49797e-41 -7.32748e-41 0)
(-1.76356e-41 1.50507e-43 0)
(-5.61093e-41 7.45284e-41 0)
(-2.45541e-40 4.7914e-40 0)
(-9.95686e-40 2.20937e-39 0)
(-7.91958e-40 9.14441e-39 0)
(8.70036e-40 6.93375e-39 0)
(1.62791e-39 -9.63511e-39 0)
(6.99589e-44 -1.84411e-38 0)
(-1.62721e-39 -9.63553e-39 0)
(-8.63918e-40 6.92841e-39 0)
(8.33049e-40 9.07956e-39 0)
(1.12733e-39 1.51349e-39 0)
(1.07435e-37 -2.83177e-38 0)
(1.35685e-38 -2.3275e-38 0)
(3.74807e-39 -2.24509e-39 0)
(8.35971e-40 3.41792e-40 0)
(3.52328e-40 -2.57048e-39 0)
(-2.80562e-40 -2.53038e-39 0)
(-3.29611e-40 7.77464e-40 0)
(6.34501e-41 1.32616e-39 0)
(1.34e-40 3.33071e-40 0)
(3.46598e-41 7.48041e-41 0)
(8.01727e-42 1.21584e-41 0)
(1.30537e-42 1.86087e-42 0)
(-3.94569e-47 4.74008e-43 0)
(-1.30574e-42 1.86121e-42 0)
(-8.02058e-42 1.21616e-41 0)
(-3.46865e-41 7.48335e-41 0)
(-1.34203e-40 3.33314e-40 0)
(-6.47441e-41 1.32806e-39 0)
(3.22086e-40 7.90234e-40 0)
(2.51476e-40 -2.4495e-39 0)
(-4.29718e-40 -2.1807e-39 0)
(-4.29718e-40 2.1807e-39 0)
(2.51476e-40 2.4495e-39 0)
(3.22086e-40 -7.90234e-40 0)
(-6.47445e-41 -1.32806e-39 0)
(-1.34206e-40 -3.33311e-40 0)
(-3.47141e-41 -7.4804e-41 0)
(-8.2315e-42 -1.19186e-41 0)
(-2.68877e-42 2.56126e-44 0)
(-8.40593e-42 1.21292e-41 0)
(-3.58381e-41 7.63961e-41 0)
(-1.40867e-40 3.43605e-40 0)
(-9.11756e-41 1.39046e-39 0)
(2.2411e-40 1.04664e-39 0)
(3.30315e-40 -1.46878e-39 0)
(1.40912e-44 -2.80573e-39 0)
(-3.30182e-40 -1.46888e-39 0)
(-2.23028e-40 1.04555e-39 0)
(9.82241e-41 1.37906e-39 0)
(1.63767e-40 2.32512e-40 0)
(1.52165e-36 2.50344e-37 0)
(1.97256e-37 -1.331e-37 0)
(2.89023e-38 -1.92572e-38 0)
(3.24706e-39 -1.92163e-39 0)
(3.90916e-40 -5.56508e-40 0)
(-1.01287e-41 -3.81792e-40 0)
(-4.80707e-41 1.09682e-40 0)
(7.3916e-42 1.91375e-40 0)
(1.8178e-41 4.89849e-41 0)
(4.80914e-42 1.12207e-41 0)
(1.13416e-42 1.85453e-42 0)
(1.87426e-43 2.87942e-43 0)
(-5.12204e-48 7.42068e-44 0)
(-1.87471e-43 2.87999e-43 0)
(-1.1345e-42 1.8551e-42 0)
(-4.81119e-42 1.1226e-41 0)
(-1.81842e-41 4.90315e-41 0)
(-7.30473e-42 1.91778e-40 0)
(5.00946e-41 1.12992e-40 0)
(3.905e-41 -3.53476e-40 0)
(-6.33714e-41 -3.141e-40 0)
(-6.33714e-41 3.141e-40 0)
(3.905e-41 3.53476e-40 0)
(5.00946e-41 -1.12992e-40 0)
(-7.30479e-42 -1.91778e-40 0)
(-1.81847e-41 -4.9031e-41 0)
(-4.81525e-42 -1.12213e-41 0)
(-1.16521e-42 -1.81703e-42 0)
(-3.86304e-43 4.04442e-45 0)
(-1.19053e-42 1.84997e-42 0)
(-4.9763e-42 1.14671e-41 0)
(-1.91238e-41 5.0597e-41 0)
(-1.09473e-41 2.01108e-40 0)
(3.69433e-41 1.50477e-40 0)
(5.12596e-41 -2.12872e-40 0)
(2.4527e-45 -4.06001e-40 0)
(-5.12374e-41 -2.12891e-40 0)
(-3.67717e-41 1.5028e-40 0)
(1.20339e-41 1.99258e-40 0)
(2.26618e-41 3.39039e-41 0)
(1.37122e-33 -1.29082e-30 0)
(2.1623e-31 -2.37562e-31 0)
(2.30794e-32 -1.22077e-29 0)
(-4.18396e-32 -1.51485e-30 0)
(2.12504e-31 1.59771e-30 0)
(-2.68246e-31 2.11458e-31 0)
(2.30989e-32 1.40047e-29 0)
(1.26786e-32 1.76448e-30 0)
(1.68958e-33 1.58275e-30 0)
(2.40332e-31 2.97609e-31 0)
(9.92249e-35 1.01873e-30 0)
(-4.1181e-32 2.0455e-31 0)
(7.086e-35 3.46655e-30 0)
(-5.06373e-31 6.61241e-31 0)
(1.15467e-34 2.66267e-29 0)
(-8.50982e-31 3.68892e-30 0)
(3.4844e-36 4.88767e-29 0)
(-2.56979e-32 6.46436e-30 0)
(-1.15105e-34 2.80284e-29 0)
(8.47827e-31 3.86313e-30 0)
(5.38007e-31 6.79171e-31 0)
(8.37109e-32 1.42947e-31 0)
(1.30401e-32 2.03813e-32 0)
(1.55081e-33 3.06996e-33 0)
(1.82433e-34 9.23553e-34 0)
(1.07689e-35 4.72996e-33 0)
(-7.76134e-35 4.05413e-32 0)
(-7.51124e-34 2.78638e-31 0)
(-5.31175e-33 2.21429e-30 0)
(-3.65314e-32 1.04531e-29 0)
(-3.18989e-32 8.85793e-29 0)
(3.18993e-32 8.85793e-29 0)
(3.65216e-32 1.04531e-29 0)
(4.98766e-33 2.21399e-30 0)
(-5.20001e-33 2.76883e-31 0)
(-7.99536e-32 2.90012e-32 0)
(-7.37005e-31 4.68571e-33 0)
(-8.00324e-32 1.20916e-32 0)
(-5.95115e-33 1.81272e-33 0)
(-3.23206e-34 3.02011e-34 0)
(-3.31098e-36 4.07221e-35 0)
(4.58222e-35 2.81822e-35 0)
(2.18716e-34 1.10584e-34 0)
(3.68451e-32 -2.72548e-32 0)
(7.31873e-33 -3.03614e-33 0)
(1.05117e-33 -3.30373e-34 0)
(1.51221e-34 -3.47584e-35 0)
(-9.48702e-33 -1.45456e-31 0)
(-1.77057e-33 -1.1012e-32 0)
(-2.56943e-34 -6.04343e-34 0)
(-3.26473e-35 -1.7185e-35 0)
(-6.21796e-32 2.12117e-32 0)
(-1.13358e-32 1.65451e-33 0)
(-1.61168e-33 9.12864e-35 0)
(-2.02844e-34 2.18454e-36 0)
(1.59291e-33 1.72015e-31 0)
(4.81862e-34 1.31723e-32 0)
(9.12981e-35 7.33947e-34 0)
(1.91278e-35 2.16586e-35 0)
(4.68056e-32 3.68316e-32 0)
(9.39644e-33 3.53491e-33 0)
(1.39862e-33 2.93997e-34 0)
(2.02735e-34 2.32706e-35 0)
(-9.89474e-33 3.59753e-32 0)
(-2.19102e-33 4.93816e-33 0)
(-3.5768e-34 6.57877e-34 0)
(-5.48115e-35 8.03749e-35 0)
(-1.04534e-31 9.11789e-32 0)
(-2.1437e-32 9.99888e-33 0)
(-3.26648e-33 1.03321e-33 0)
(-4.78446e-34 1.03889e-34 0)
(-1.70152e-31 3.85148e-31 0)
(-3.44783e-32 3.17032e-32 0)
(-5.1859e-33 2.01655e-33 0)
(-7.54042e-34 9.28305e-35 0)
(-5.06409e-33 6.47188e-31 0)
(-1.02007e-33 5.06231e-32 0)
(-1.52422e-34 2.8379e-33 0)
(-2.20739e-35 7.82572e-35 0)
(1.69435e-31 4.01423e-31 0)
(3.43311e-32 3.28504e-32 0)
(5.16332e-33 2.0608e-33 0)
(7.50776e-34 9.08573e-35 0)
(1.11057e-31 9.24533e-32 0)
(2.27933e-32 9.97838e-33 0)
(3.47537e-33 1.00748e-33 0)
(5.09422e-34 9.89629e-35 0)
(1.98503e-32 2.53407e-32 0)
(4.32258e-33 3.50627e-33 0)
(6.97243e-34 4.69733e-34 0)
(1.0586e-34 5.76137e-35 0)
(3.23708e-33 4.09393e-33 0)
(7.50348e-34 6.32855e-34 0)
(1.26689e-34 9.26667e-35 0)
(2.00214e-35 1.2136e-35 0)
(3.99934e-34 6.81506e-34 0)
(9.68956e-35 1.1458e-34 0)
(1.68749e-35 1.79891e-35 0)
(2.74015e-36 2.4879e-36 0)
(-1.256e-35 2.36366e-34 0)
(-5.70426e-36 5.20206e-35 0)
(-2.45168e-36 9.11044e-36 0)
(-5.00075e-37 1.45339e-36 0)
(-5.87759e-34 1.24414e-33 0)
(-1.677e-34 2.92145e-34 0)
(-4.22389e-35 5.08605e-35 0)
(-7.67503e-36 8.18854e-36 0)
(-4.95176e-33 1.0121e-32 0)
(-1.37287e-33 2.2438e-33 0)
(-3.31127e-34 3.71152e-34 0)
(-5.82949e-35 5.74117e-35 0)
(-4.16741e-32 6.68213e-32 0)
(-1.09009e-32 1.34091e-32 0)
(-2.50578e-33 2.05117e-33 0)
(-4.23082e-34 2.96009e-34 0)
(-2.5815e-31 4.73246e-31 0)
(-6.43267e-32 8.38093e-32 0)
(-1.38548e-32 1.14143e-32 0)
(-2.23049e-33 1.50073e-33 0)
(-1.67194e-30 2.10261e-30 0)
(-3.56944e-31 2.76792e-31 0)
(-7.24372e-32 2.76687e-32 0)
(-1.10036e-32 2.45215e-33 0)
(-1.45105e-30 1.25431e-29 0)
(-3.02298e-31 1.29652e-30 0)
(-6.07953e-32 1.01926e-31 0)
(-9.14479e-33 5.80121e-33 0)
(1.45105e-30 1.25431e-29 0)
(3.02297e-31 1.29653e-30 0)
(6.07945e-32 1.01927e-31 0)
(9.14457e-33 5.80154e-33 0)
(1.67193e-30 2.10265e-30 0)
(3.56935e-31 2.76838e-31 0)
(7.24301e-32 2.76812e-32 0)
(1.10017e-32 2.455e-33 0)
(2.57831e-31 4.73558e-31 0)
(6.41986e-32 8.41941e-32 0)
(1.37895e-32 1.15125e-32 0)
(2.21488e-33 1.52215e-33 0)
(3.58172e-32 6.86731e-32 0)
(9.17059e-33 1.56756e-32 0)
(1.87785e-33 2.5994e-33 0)
(2.9175e-34 4.08016e-34 0)
(-7.39502e-32 2.22999e-32 0)
(-1.63064e-32 1.67156e-32 0)
(-4.19826e-33 3.37824e-33 0)
(-7.54117e-34 6.38275e-34 0)
(-7.28601e-31 1.23332e-33 0)
(-1.15194e-31 2.90255e-34 0)
(-2.75154e-32 5.08699e-35 0)
(-4.42276e-33 9.47949e-36 0)
(-7.88406e-32 -1.20297e-32 0)
(-1.76609e-32 -1.44344e-32 0)
(-4.52319e-33 -2.99734e-33 0)
(-8.06391e-34 -5.67049e-34 0)
(-5.84993e-33 -1.83498e-33 0)
(-1.72482e-33 -2.25756e-33 0)
(-6.12944e-34 -5.19938e-34 0)
(-7.95713e-35 4.011e-36 0)
(-3.12263e-34 -3.04043e-34 0)
(-9.56999e-35 -3.48256e-34 0)
(7.16553e-35 1.11325e-34 0)
(5.09798e-34 8.96184e-34 0)
(3.30576e-35 3.44918e-36 0)
(2.41238e-34 2.13697e-34 0)
(1.13335e-33 1.55755e-33 0)
(4.85298e-33 7.20137e-33 0)
(3.10534e-34 1.85418e-34 0)
(1.92286e-33 1.2795e-33 0)
(9.53057e-33 8.17432e-33 0)
(4.63312e-32 4.00614e-32 0)
(1.57442e-33 9.01731e-34 0)
(1.04784e-32 6.29762e-33 0)
(5.83978e-32 4.23963e-32 0)
(3.30855e-31 2.19242e-31 0)
(1.84485e-35 -3.05008e-36 0)
(2.06872e-36 -1.22542e-37 0)
(2.13221e-37 -4.89348e-39 0)
(2.1274e-38 -2.05236e-40 0)
(2.00386e-39 -5.13962e-41 0)
(1.77436e-40 -3.7312e-41 0)
(1.06021e-41 1.06475e-41 0)
(1.92152e-42 1.87804e-41 0)
(1.82721e-42 4.89442e-42 0)
(4.71431e-43 1.15045e-42 0)
(1.114e-43 1.93991e-43 0)
(1.85538e-44 3.07307e-44 0)
(2.73844e-48 8.04568e-45 0)
(-1.85125e-44 3.07377e-44 0)
(-1.10813e-43 1.94059e-43 0)
(-4.63432e-43 1.15108e-42 0)
(-1.72305e-42 4.89993e-42 0)
(-6.14375e-43 1.88262e-41 0)
(5.06659e-42 1.09974e-41 0)
(3.94162e-42 -3.46887e-41 0)
(-6.25783e-42 -3.07762e-41 0)
(-6.25783e-42 3.07762e-41 0)
(3.94162e-42 3.46887e-41 0)
(5.06659e-42 -1.09974e-41 0)
(-6.1438e-43 -1.88262e-41 0)
(-1.7231e-42 -4.89987e-42 0)
(-4.6384e-43 -1.15057e-42 0)
(-1.13876e-43 -1.89929e-43 0)
(-3.81669e-44 4.44268e-46 0)
(-1.16396e-43 1.93494e-43 0)
(-4.79721e-43 1.17672e-42 0)
(-1.8146e-42 5.06308e-42 0)
(-9.63584e-43 1.97787e-41 0)
(3.8289e-42 1.4712e-41 0)
(5.18045e-42 -2.09872e-41 0)
(2.80746e-46 -3.99538e-41 0)
(-5.17797e-42 -2.09897e-41 0)
(-3.81027e-42 1.46885e-41 0)
(1.08109e-42 1.95764e-41 0)
(2.21037e-42 3.33905e-42 0)
(-3.31299e-36 1.34021e-36 0)
(-2.83256e-37 2.54801e-37 0)
(-1.97083e-38 2.72715e-38 0)
(-9.64135e-40 2.39942e-39 0)
(1.65679e-42 1.868e-40 0)
(8.35329e-42 1.06844e-41 0)
(1.07056e-42 1.87139e-42 0)
(2.28871e-43 1.71089e-42 0)
(1.52362e-43 4.38987e-43 0)
(3.81282e-44 1.03534e-43 0)
(8.97825e-45 1.75942e-44 0)
(1.50455e-45 2.80464e-45 0)
(1.16069e-48 7.38541e-46 0)
(-1.49e-45 2.80567e-45 0)
(-8.8076e-45 1.75985e-44 0)
(-3.62255e-44 1.03461e-43 0)
(-1.32759e-43 4.36379e-43 0)
(-4.46937e-44 1.65712e-42 0)
(3.9916e-43 9.61293e-43 0)
(3.09784e-43 -3.05161e-42 0)
(-4.891e-43 -2.70386e-42 0)
(-4.891e-43 2.70386e-42 0)
(3.09784e-43 3.05161e-42 0)
(3.9916e-43 -9.61293e-43 0)
(-4.46941e-44 -1.65712e-42 0)
(-1.32764e-43 -4.36374e-43 0)
(-3.62591e-44 -1.03413e-43 0)
(-9.0574e-45 -1.72193e-44 0)
(-3.07419e-45 4.09321e-47 0)
(-9.2625e-45 1.75464e-44 0)
(-3.75349e-44 1.05798e-43 0)
(-1.40015e-43 4.51156e-43 0)
(-7.18332e-44 1.74257e-42 0)
(3.04395e-43 1.29108e-42 0)
(4.08216e-43 -1.85127e-42 0)
(2.5583e-47 -3.5211e-42 0)
(-4.07996e-43 -1.85153e-42 0)
(-3.028e-43 1.28873e-42 0)
(8.17571e-44 1.72337e-42 0)
(1.73207e-43 2.9601e-43 0)
(-2.08549e-35 -3.19422e-37 0)
(-1.87995e-36 -5.41168e-38 0)
(-1.51806e-37 -6.12647e-39 0)
(-1.07067e-38 -5.88399e-40 0)
(-6.2249e-40 -5.34955e-41 0)
(-2.05897e-41 -4.7944e-42 0)
(1.13028e-42 -3.00395e-43 0)
(3.52026e-43 1.01899e-43 0)
(5.80068e-44 3.28285e-44 0)
(8.13016e-45 8.27061e-45 0)
(1.21521e-45 1.44008e-45 0)
(1.65986e-46 2.33145e-46 0)
(3.82874e-48 6.20915e-47 0)
(-1.20022e-46 2.3405e-46 0)
(-7.05993e-46 1.45281e-45 0)
(-2.87952e-45 8.44437e-45 0)
(-1.04497e-44 3.51442e-44 0)
(-3.41633e-45 1.31833e-43 0)
(3.16561e-44 7.5962e-44 0)
(2.4517e-44 -2.42674e-43 0)
(-3.86753e-44 -2.14752e-43 0)
(-3.86753e-44 2.14752e-43 0)
(2.4517e-44 2.42674e-43 0)
(3.16561e-44 -7.5962e-44 0)
(-3.41637e-45 -1.31833e-43 0)
(-1.04501e-44 -3.51438e-44 0)
(-2.88227e-45 -8.44035e-45 0)
(-7.26322e-46 -1.42089e-45 0)
(-2.48334e-46 3.46761e-48 0)
(-7.4297e-46 1.44839e-45 0)
(-2.98519e-45 8.63896e-45 0)
(-1.10304e-44 3.63616e-44 0)
(-5.56719e-45 1.3879e-43 0)
(2.42289e-44 1.024e-43 0)
(3.23824e-44 -1.47671e-43 0)
(2.25719e-48 -2.8055e-43 0)
(-3.23633e-44 -1.47695e-43 0)
(-2.40937e-44 1.0219e-43 0)
(6.39743e-45 1.3715e-43 0)
(1.38329e-44 2.36579e-44 0)
(2.8697e-36 -1.56085e-36 0)
(4.0709e-37 -2.96866e-37 0)
(4.97938e-38 -3.18556e-38 0)
(5.85696e-39 -2.81328e-39 0)
(6.2855e-40 -2.2594e-40 0)
(6.46832e-41 -1.68063e-41 0)
(6.23498e-42 -1.15742e-42 0)
(5.78311e-43 -6.41434e-44 0)
(5.17103e-44 -1.51099e-45 0)
(4.54353e-45 4.65748e-46 0)
(4.06182e-46 1.10427e-46 0)
(3.69949e-47 1.9161e-47 0)
(2.1141e-48 5.15178e-48 0)
(-9.04418e-48 1.91735e-47 0)
(-5.35563e-47 1.18376e-46 0)
(-2.16512e-46 6.83472e-46 0)
(-7.78175e-46 2.82562e-45 0)
(-2.49206e-46 1.05067e-44 0)
(2.36422e-45 6.02115e-45 0)
(1.82718e-45 -1.93317e-44 0)
(-2.88484e-45 -1.70901e-44 0)
(-2.88484e-45 1.70901e-44 0)
(1.82718e-45 1.93317e-44 0)
(2.36422e-45 -6.02115e-45 0)
(-2.49209e-46 -1.05067e-44 0)
(-7.78202e-46 -2.82558e-45 0)
(-2.16725e-46 -6.83141e-46 0)
(-5.51316e-47 -1.15749e-46 0)
(-1.89952e-47 2.86183e-49 0)
(-5.6412e-47 1.1801e-46 0)
(-2.24586e-46 6.99391e-46 0)
(-8.22155e-46 2.92471e-45 0)
(-4.10406e-46 1.10689e-44 0)
(1.81351e-45 8.14186e-45 0)
(2.41935e-45 -1.17881e-44 0)
(1.86141e-49 -2.23798e-44 0)
(-2.41781e-45 -1.17902e-44 0)
(-1.80279e-45 8.12366e-45 0)
(4.75208e-46 1.0931e-44 0)
(1.04045e-45 1.89502e-45 0)
(2.36858e-35 1.7908e-36 0)
(2.62021e-36 1.49769e-37 0)
(2.65028e-37 1.41629e-38 0)
(2.61696e-38 1.35098e-39 0)
(2.42996e-39 1.28131e-40 0)
(2.19058e-40 1.1634e-41 0)
(1.8832e-41 1.02466e-42 0)
(1.57062e-42 8.71893e-44 0)
(1.26007e-43 7.2724e-45 0)
(9.82406e-45 6.07866e-46 0)
(7.42381e-46 5.15474e-47 0)
(5.47552e-47 4.62116e-48 0)
(3.84199e-48 6.23008e-49 0)
(-4.22806e-49 1.49596e-48 0)
(-3.9716e-48 9.08253e-48 0)
(-1.60372e-47 5.20391e-47 0)
(-5.72191e-47 2.13383e-46 0)
(-1.8049e-47 7.86335e-46 0)
(1.74045e-46 4.48226e-46 0)
(1.34271e-46 -1.44626e-45 0)
(-2.12222e-46 -1.2773e-45 0)
(-2.12222e-46 1.2773e-45 0)
(1.34271e-46 1.44626e-45 0)
(1.74045e-46 -4.48226e-46 0)
(-1.80493e-47 -7.86335e-46 0)
(-5.72213e-47 -2.1338e-46 0)
(-1.60545e-47 -5.20132e-47 0)
(-4.10714e-48 -8.8774e-48 0)
(-1.42246e-48 2.23177e-50 0)
(-4.20333e-48 9.05293e-48 0)
(-1.66426e-47 5.32666e-47 0)
(-6.04907e-47 2.20976e-46 0)
(-2.99667e-47 8.29071e-46 0)
(1.33685e-46 6.07914e-46 0)
(1.78152e-46 -8.83869e-46 0)
(1.47905e-50 -1.67672e-45 0)
(-1.78031e-46 -8.84045e-46 0)
(-1.32858e-46 6.06442e-46 0)
(3.4905e-47 8.18231e-46 0)
(7.72108e-47 1.42427e-46 0)
(-6.74688e-36 8.85571e-36 0)
(-7.68767e-37 8.76734e-37 0)
(-7.9868e-38 8.56419e-38 0)
(-8.00646e-39 7.9134e-39 0)
(-7.53018e-40 7.10369e-40 0)
(-6.83084e-41 6.08497e-41 0)
(-5.89835e-42 5.05317e-42 0)
(-4.92105e-43 4.03507e-43 0)
(-3.94174e-44 3.1278e-44 0)
(-3.05742e-45 2.34544e-45 0)
(-2.28871e-46 1.71193e-46 0)
(-1.66191e-47 1.216e-47 0)
(-1.17558e-48 8.5922e-49 0)
(-1.30024e-49 1.66955e-49 0)
(-2.89726e-49 6.84513e-49 0)
(-1.137e-48 3.88161e-48 0)
(-4.02567e-48 1.58359e-47 0)
(-1.25179e-48 5.79516e-47 0)
(1.22549e-47 3.2887e-47 0)
(9.4378e-48 -1.06548e-46 0)
(-1.49349e-47 -9.40224e-47 0)
(-1.49349e-47 9.40224e-47 0)
(9.4378e-48 1.06548e-46 0)
(1.22549e-47 -3.2887e-47 0)
(-1.25181e-48 -5.79515e-47 0)
(-4.0258e-48 -1.58357e-47 0)
(-1.13781e-48 -3.87942e-48 0)
(-2.92809e-49 -6.65466e-49 0)
(-1.0195e-49 1.69015e-51 0)
(-2.99727e-49 6.78722e-49 0)
(-1.17993e-48 3.9737e-48 0)
(-4.25852e-48 1.64047e-47 0)
(-2.09465e-48 6.11353e-47 0)
(9.42477e-48 4.47169e-47 0)
(1.25477e-47 -6.52243e-47 0)
(1.11636e-51 -1.23664e-46 0)
(-1.25387e-47 -6.52383e-47 0)
(-9.36407e-48 4.46016e-47 0)
(2.45301e-48 6.03046e-47 0)
(5.47325e-48 1.0539e-47 0)
(-5.64918e-35 9.96469e-36 0)
(-6.27005e-36 9.19616e-37 0)
(-6.36172e-37 8.69181e-38 0)
(-6.27663e-38 7.90871e-39 0)
(-5.82118e-39 7.04059e-40 0)
(-5.22955e-40 5.996e-41 0)
(-4.47843e-41 4.95577e-42 0)
(-3.7153e-42 3.93959e-43 0)
(-2.96262e-43 3.04031e-44 0)
(-2.29198e-44 2.26839e-45 0)
(-1.7137e-45 1.64581e-46 0)
(-1.24543e-46 1.15906e-47 0)
(-8.78232e-48 7.964e-49 0)
(-6.0651e-49 6.10294e-50 0)
(-6.0079e-50 5.22817e-50 0)
(-8.14032e-50 2.77081e-49 0)
(-2.77508e-49 1.12352e-48 0)
(-8.52128e-50 4.08322e-48 0)
(8.44717e-49 2.30711e-48 0)
(6.49558e-49 -7.50471e-48 0)
(-1.02898e-48 -6.61715e-48 0)
(-1.02898e-48 6.61715e-48 0)
(6.49558e-49 7.50471e-48 0)
(8.44718e-49 -2.30711e-48 0)
(-8.52037e-50 -4.08321e-48 0)
(-2.77351e-49 -1.12349e-48 0)
(-7.88581e-50 -2.7672e-49 0)
(-2.03755e-50 -4.77153e-50 0)
(-7.12263e-51 1.22551e-52 0)
(-2.08599e-50 4.86735e-50 0)
(-8.17983e-50 2.83505e-49 0)
(-2.93527e-49 1.16427e-48 0)
(-1.43534e-49 4.31003e-48 0)
(6.50266e-49 3.14478e-48 0)
(8.65094e-49 -4.60184e-48 0)
(8.14192e-53 -8.71999e-48 0)
(-8.64443e-49 -4.6029e-48 0)
(-6.45934e-49 3.13619e-48 0)
(1.68859e-49 4.24936e-48 0)
(3.79731e-49 7.4535e-49 0)
(-8.83792e-35 5.88016e-37 0)
(-9.76176e-36 -3.45768e-37 0)
(-9.85699e-37 -4.94949e-38 0)
(-9.6911e-38 -5.08297e-39 0)
(-8.95746e-39 -4.71443e-40 0)
(-8.02573e-40 -4.07661e-41 0)
(-6.85565e-41 -3.39131e-42 0)
(-5.67565e-42 -2.70604e-43 0)
(-4.51699e-43 -2.09354e-44 0)
(-3.48869e-44 -1.56514e-45 0)
(-2.60444e-45 -1.13728e-46 0)
(-1.89023e-46 -8.01792e-48 0)
(-1.33119e-47 -5.50378e-49 0)
(-9.13302e-49 -3.62193e-50 0)
(-6.22753e-50 1.01563e-51 0)
(-9.23767e-51 1.91201e-50 0)
(-1.8694e-50 7.79117e-50 0)
(-5.61451e-51 2.81598e-49 0)
(5.61963e-50 1.58516e-49 0)
(4.31505e-50 -5.17396e-49 0)
(-6.8427e-50 -4.55889e-49 0)
(-6.8427e-50 4.55889e-49 0)
(4.31505e-50 5.17396e-49 0)
(5.61972e-50 -1.58516e-49 0)
(-5.59895e-51 -2.81598e-49 0)
(-1.84427e-50 -7.792e-50 0)
(-5.27421e-51 -1.92625e-50 0)
(-1.36819e-51 -3.33452e-51 0)
(-4.80139e-52 8.62853e-54 0)
(-1.40092e-51 3.40186e-51 0)
(-5.47228e-51 1.97379e-50 0)
(-1.95276e-50 8.07681e-50 0)
(-9.49466e-51 2.97373e-49 0)
(4.33013e-50 2.16535e-49 0)
(5.75655e-50 -3.17693e-49 0)
(5.70074e-54 -6.01731e-49 0)
(-5.75203e-50 -3.1777e-49 0)
(-4.3004e-50 2.15916e-49 0)
(1.12172e-50 2.93062e-49 0)
(2.54067e-50 5.15812e-50 0)
(-2.57659e-36 -8.07881e-36 0)
(-2.83787e-37 -1.49108e-36 0)
(-2.85744e-38 -1.72077e-37 0)
(-2.80334e-39 -1.67133e-38 0)
(-2.58573e-40 -1.52135e-39 0)
(-2.31289e-41 -1.3056e-40 0)
(-1.97253e-42 -1.0821e-41 0)
(-1.63082e-43 -8.6127e-43 0)
(-1.29625e-44 -6.65061e-44 0)
(-1.00005e-45 -4.96361e-45 0)
(-7.45799e-47 -3.60151e-46 0)
(-5.40784e-48 -2.53573e-47 0)
(-3.80517e-49 -1.73886e-48 0)
(-2.60948e-50 -1.16007e-49 0)
(-1.8265e-51 -7.32551e-51 0)
(-4.57282e-52 8.14608e-52 0)
(-1.20565e-51 5.18483e-51 0)
(-3.60511e-52 1.87405e-50 0)
(3.6533e-51 1.0512e-50 0)
(2.80156e-51 -3.44257e-50 0)
(-4.44669e-51 -3.0313e-50 0)
(-4.44669e-51 3.0313e-50 0)
(2.80156e-51 3.44258e-50 0)
(3.65333e-51 -1.05121e-50 0)
(-3.60075e-52 -1.87423e-50 0)
(-1.19851e-51 -5.21455e-51 0)
(-3.44439e-52 -1.29378e-51 0)
(-8.96111e-53 -2.24803e-52 0)
(-3.15459e-53 5.58555e-55 0)
(-9.17613e-53 2.29385e-52 0)
(-3.57446e-52 1.32591e-51 0)
(-1.2695e-51 5.40649e-51 0)
(-6.14224e-52 1.98009e-50 0)
(2.81716e-51 1.43897e-50 0)
(3.74294e-51 -2.11662e-50 0)
(3.90086e-55 -4.00729e-50 0)
(-3.73991e-51 -2.11715e-50 0)
(-2.79733e-51 1.43467e-50 0)
(7.28339e-52 1.9506e-50 0)
(1.66057e-51 3.44458e-51 0)
(8.79985e-35 -8.50881e-38 0)
(9.72003e-36 -4.31263e-37 0)
(9.81513e-37 -5.85696e-38 0)
(9.65022e-38 -5.94423e-39 0)
(8.91989e-39 -5.49376e-40 0)
(7.99225e-40 -4.74517e-41 0)
(6.82719e-41 -3.9461e-42 0)
(5.6522e-42 -3.14834e-43 0)
(4.4984e-43 -2.43565e-44 0)
(3.47439e-44 -1.82089e-45 0)
(2.59379e-45 -1.32314e-46 0)
(1.88254e-46 -9.32865e-48 0)
(1.32578e-47 -6.40493e-49 0)
(9.09369e-49 -4.27906e-50 0)
(6.06953e-50 -2.77403e-51 0)
(3.93116e-51 -9.25984e-53 0)
(1.75508e-52 3.29373e-52 0)
(-6.84568e-54 1.21815e-51 0)
(2.31459e-52 6.81936e-52 0)
(1.76559e-52 -2.23782e-51 0)
(-2.80453e-52 -1.96957e-51 0)
(-2.80408e-52 1.96969e-51 0)
(1.76544e-52 2.23874e-51 0)
(2.30463e-52 -6.81162e-52 0)
(-2.25045e-53 -1.21872e-51 0)
(-7.56014e-53 -3.40815e-52 0)
(-2.17937e-53 -8.48177e-53 0)
(-5.71937e-54 -1.43631e-53 0)
(-2.04328e-54 -4.36646e-55 0)
(-5.8022e-54 1.49494e-53 0)
(-2.26401e-53 8.68591e-53 0)
(-8.00701e-53 3.53417e-52 0)
(-3.85552e-53 1.28859e-51 0)
(1.77819e-52 9.34892e-52 0)
(2.36154e-52 -1.37803e-51 0)
(8.27641e-56 -2.60746e-51 0)
(-2.35992e-52 -1.37745e-51 0)
(-1.76625e-52 9.31391e-52 0)
(4.58926e-53 1.26845e-51 0)
(1.05306e-52 2.2449e-52 0)
(6.01913e-35 9.30215e-36 0)
(6.68442e-36 8.48112e-37 0)
(6.78559e-37 7.965e-38 0)
(6.69767e-38 7.22203e-39 0)
(6.21406e-39 6.4155e-40 0)
(5.58438e-40 5.4544e-41 0)
(4.78376e-41 4.50176e-42 0)
(3.9697e-42 3.57385e-43 0)
(3.1663e-43 2.75458e-44 0)
(2.45013e-44 2.05256e-45 0)
(1.83237e-45 1.48727e-46 0)
(1.33197e-46 1.04582e-47 0)
(9.39409e-48 7.16369e-49 0)
(6.45189e-49 4.7758e-50 0)
(4.31188e-50 3.10714e-51 0)
(2.80946e-51 2.00901e-52 0)
(1.74087e-52 2.81045e-53 0)
(1.06089e-53 7.60179e-53 0)
(1.54407e-53 5.16981e-53 0)
(1.04971e-53 -1.33668e-52 0)
(-1.77285e-53 -1.22304e-52 0)