/*--------------------------------*- C++ -*----------------------------------*\
| =========                 |                                                 |
| \\      /  F ield         | OpenFOAM: The Open Source CFD Toolbox           |
|  \\    /   O peration     | Version:  2.4.0                                 |
|   \\  /    A nd           | Web:      www.OpenFOAM.org                      |
|    \\/     M anipulation  |                                                 |
\*---------------------------------------------------------------------------*/
FoamFile
{
    version     2.0;
    format      ascii;
    class       volScalarField;
    location    "0.7";
    object      p;
}
// * * * * * * * * * * * * * * * * * * * * * * * * * * * * * * * * * * * * * //

dimensions      [0 2 -2 0 0 0 0];

internalField   nonuniform List<scalar> 
1600
(
7.50352e-06
-0.00117864
-0.00390904
-0.00758369
-0.0115295
-0.0152506
-0.0183894
-0.0206932
-0.0219945
-0.0221937
-0.021245
-0.0191464
-0.0159315
-0.0116632
-0.0064288
-0.000336044
0.00649008
0.0139102
0.0217728
0.0299171
0.0381748
0.0463733
0.054338
0.0618962
0.0688801
0.0751312
0.0805048
0.084875
0.0881401
0.0902287
0.0911058
0.0907802
0.0893121
0.0868227
0.0835054
0.0796393
0.0756047
0.0719104
0.0692245
0.0681085
0.00120152
1.0907e-05
-0.00220598
-0.00505784
-0.00810118
-0.0109707
-0.0133817
-0.0151212
-0.0160388
-0.0160387
-0.0150708
-0.0131236
-0.0102178
-0.00640173
-0.00174642
0.0036574
0.00970254
0.016268
0.0232214
0.0304213
0.0377197
0.0449647
0.052003
0.0586834
0.0648599
0.0703958
0.0751675
0.0790695
0.0820189
0.0839606
0.0848725
0.0847718
0.0837202
0.0818308
0.0792743
0.0762847
0.0731641
0.0702884
0.068105
0.0669946
0.00394693
0.00221911
-2.82738e-05
-0.00258823
-0.00521761
-0.00764656
-0.00965141
-0.0110605
-0.0117482
-0.0116306
-0.0106619
-0.00882874
-0.00614651
-0.00265496
0.00158501
0.00649442
0.0119788
0.0179306
0.0242317
0.0307551
0.037368
0.0439335
0.050314
0.0563735
0.0619814
0.0670156
0.0713666
0.0749418
0.0776693
0.0795025
0.0804248
0.080454
0.0796465
0.0781011
0.0759622
0.0734205
0.0707163
0.0681312
0.0659238
0.0643062
0.00771132
0.00509961
0.00245794
-0.000171674
-0.00272741
-0.00500937
-0.00684331
-0.00809746
-0.00867339
-0.00850433
-0.00755359
-0.00581178
-0.00329374
-3.56812e-05
0.00390742
0.00846421
0.0135491
0.0190644
0.0249022
0.0309467
0.0370759
0.0431642
0.0490851
0.0547133
0.0599286
0.0646183
0.0686816
0.0720329
0.0746056
0.0763562
0.0772678
0.0773537
0.0766603
0.0752693
0.0732977
0.0708975
0.0682611
0.0656035
0.063012
0.0605431
0.0119008
0.00826033
0.00505092
0.00216963
-0.000488711
-0.00278023
-0.00457233
-0.00577037
-0.00630316
-0.00612235
-0.00520298
-0.00354208
-0.00115675
0.00191772
0.00562981
0.00991344
0.0146898
0.0198687
0.0253508
0.0310288
0.0367898
0.0425168
0.048092
0.0533981
0.0583224
0.0627587
0.0666115
0.0697991
0.0722567
0.0739405
0.0748302
0.0749318
0.0742798
0.0729377
0.0709964
0.0685728
0.0658205
0.0629028
0.0597489
0.0562785
0.0160891
0.011377
0.00750711
0.00425633
0.00137311
-0.00104159
-0.00288878
-0.0041065
-0.00464896
-0.00448609
-0.00360555
-0.00201235
0.000272292
0.00321207
0.00675684
0.0108438
0.0153989
0.0203378
0.0255672
0.0309867
0.03649
0.041967
0.0473056
0.0523946
0.0571258
0.061397
0.065115
0.0681989
0.0705834
0.0722213
0.0730865
0.0731762
0.0725118
0.0711392
0.0691255
0.0665578
0.0635596
0.0602565
0.0564403
0.051918
0.0199669
0.0141881
0.00961132
0.00591507
0.00272226
0.000102447
-0.00187137
-0.00316498
-0.00375532
-0.00362955
-0.00278803
-0.00124448
0.000974527
0.00383017
0.00727206
0.011239
0.0156597
0.0204538
0.0255326
0.0308003
0.0361555
0.0414924
0.0467031
0.0516795
0.0563157
0.0605109
0.0641717
0.0672158
0.0695742
0.0711945
0.072043
0.0721065
0.0713932
0.0699326
0.0677708
0.0649706
0.061634
0.057861
0.053327
0.0477484
0.0233011
0.0164799
0.0111784
0.00699315
0.00343816
0.000560491
-0.00158651
-0.00299187
-0.0036524
-0.00357109
-0.00276049
-0.00124331
0.000947835
0.00377059
0.00717308
0.0110943
0.0154643
0.0202051
0.0252308
0.0304488
0.0357605
0.041063
0.0462502
0.0512152
0.0558525
0.06006
0.0637423
0.0668131
0.0691979
0.0708372
0.071688
0.0717259
0.0709462
0.0693626
0.0670039
0.0639128
0.0601773
0.0558812
0.0506006
0.0439781
0.0259095
0.0180732
0.0120439
0.00734719
0.00340034
0.000234359
-0.00211215
-0.00364768
-0.0043864
-0.00434556
-0.00354931
-0.00202923
0.000175635
0.00301868
0.00644564
0.0103945
0.0147958
0.0195722
0.0246396
0.0299068
0.0352768
0.0406476
0.0459137
0.0509675
0.0557017
0.0600113
0.0637967
0.0669656
0.0694364
0.0711405
0.0720246
0.0720524
0.0712059
0.0694847
0.0669019
0.0634849
0.0593127
0.0544606
0.0484174
0.0407626
0.0276416
0.0188121
0.0120579
0.00684012
0.00248725
-0.000981163
-0.00353771
-0.0052074
-0.00601969
-0.00600487
-0.00519794
-0.00363921
-0.00137436
0.00154528
0.00506236
0.00911316
0.0136273
0.0185277
0.0237303
0.0291446
0.0346736
0.0402151
0.0456624
0.050906
0.055835
0.06034
0.064315
0.0676603
0.0702852
0.0721106
0.0730714
0.0731188
0.0722212
0.0703648
0.0675489
0.0637884
0.0591574
0.0537283
0.0469098
0.038225
0.0283644
0.0185551
0.0110798
0.00533877
0.000576397
-0.00319632
-0.00596073
-0.00775636
-0.00862647
-0.00861339
-0.00776248
-0.00612262
-0.00374626
-0.000689828
0.00298571
0.00721426
0.011924
0.017037
0.0224686
0.0281278
0.0339169
0.0397322
0.0454647
0.0510015
0.0562271
0.0610258
0.0652837
0.068892
0.071749
0.0737637
0.0748578
0.0749688
0.0740512
0.0720776
0.0690349
0.064927
0.0598262
0.0538055
0.0461972
0.0364713
0.0279525
0.017167
0.00897283
0.00271055
-0.00245735
-0.00652681
-0.00948647
-0.0113892
-0.0122912
-0.0122462
-0.0113099
-0.00953944
-0.00699435
-0.00373644
0.000169328
0.00465398
0.00964372
0.0150592
0.0208146
0.0268178
0.0329693
0.0391634
0.0452878
0.0512252
0.0568541
0.0620512
0.0666935
0.070661
0.0738397
0.0761244
0.0774224
0.0776558
0.0767643
0.0747066
0.0714569
0.0670094
0.061436
0.0548125
0.0463958
0.0356025
0.0262802
0.0145128
0.00559902
-0.00118006
-0.006744
-0.0110949
-0.0142282
-0.0162095
-0.0171078
-0.0169884
-0.0159167
-0.0139591
-0.0111819
-0.00765271
-0.0034409
0.00138136
0.00673796
0.0125477
0.0187236
0.0251714
0.0317901
0.0384708
0.0450976
0.0515476
0.0576928
0.063401
0.0685385
0.0729726
0.0765749
0.0792247
0.0808122
0.0812426
0.0804391
0.0783451
0.0749215
0.0701525
0.0641106
0.0568754
0.0476257
0.0357238
0.0232168
0.0104526
0.000815254
-0.00647473
-0.0124207
-0.017031
-0.0203077
-0.0223298
-0.0231794
-0.0229335
-0.0216682
-0.0194588
-0.0163795
-0.0125036
-0.00790536
-0.00266023
0.00315309
0.0094516
0.0161465
0.0231422
0.0303353
0.0376139
0.0448578
0.0519384
0.05872
0.0650607
0.0708148
0.0758354
0.0799778
0.083103
0.0850824
0.0858016
0.0851648
0.0830981
0.0795474
0.0744857
0.0679857
0.0601313
0.0500184
0.036952
0.018622
0.0048374
-0.00553072
-0.0133245
-0.0196342
-0.024475
-0.0278565
-0.029872
-0.0306176
-0.0301832
-0.0286565
-0.0261225
-0.0226634
-0.0183592
-0.0132888
-0.00753135
-0.001168
0.00571643
0.0130318
0.0206809
0.0285585
0.0365498
0.0445304
0.0523657
0.0599118
0.0670162
0.0735201
0.0792608
0.0840751
0.0878039
0.0902962
0.091415
0.0910424
0.0890842
0.0854682
0.0801542
0.0732139
0.0647347
0.0537229
0.039422
0.0123423
-0.00249455
-0.0136039
-0.021893
-0.0285432
-0.0335781
-0.0370162
-0.0389668
-0.039542
-0.0388461
-0.0369795
-0.0340383
-0.0301135
-0.0252921
-0.019658
-0.0132941
-0.00628375
0.00128681
0.00932645
0.0177372
0.0264123
0.0352347
0.0440762
0.0527964
0.0612431
0.0692527
0.0766524
0.0832619
0.0888978
0.0933773
0.0965244
0.0981753
0.098186
0.0964376
0.0928359
0.0873237
0.0799696
0.0708629
0.0589118
0.0432929
0.0042079
-0.0117218
-0.0235859
-0.0323596
-0.0393213
-0.044505
-0.0479402
-0.0497549
-0.0500798
-0.049036
-0.0467387
-0.0432964
-0.0388101
-0.0333745
-0.0270787
-0.0200091
-0.0122508
-0.00389103
0.00497916
0.0142618
0.0238498
0.0336249
0.0434558
0.0531971
0.0626886
0.0717556
0.0802103
0.0878537
0.0944795
0.0998788
0.103846
0.106187
0.106724
0.105311
0.101824
0.0961844
0.0884544
0.0787226
0.0657879
0.0487543
-0.00597078
-0.0230435
-0.0356789
-0.0449236
-0.0521601
-0.0574356
-0.060794
-0.0623861
-0.0623646
-0.0608706
-0.0580368
-0.0539861
-0.0488311
-0.0426747
-0.0356117
-0.0277314
-0.0191205
-0.00986555
-5.67137e-05
0.0102096
0.0208275
0.0316789
0.0426311
0.0535348
0.0642229
0.0745098
0.0841924
0.0930518
0.100857
0.107369
0.112349
0.115565
0.116803
0.115878
0.112632
0.106957
0.0989036
0.0885563
0.0745912
0.0560328
-0.0184071
-0.0366848
-0.0501112
-0.0598084
-0.0672726
-0.0725678
-0.0757573
-0.0770198
-0.076535
-0.0744686
-0.0709741
-0.0661917
-0.060247
-0.0532521
-0.0453078
-0.036506
-0.0269335
-0.0166753
-0.00581867
0.00554343
0.0173084
0.0293606
0.0415681
0.0537794
0.0658222
0.077501
0.0885979
0.0988732
0.108069
0.115913
0.122128
0.126439
0.128586
0.128336
0.125488
0.119897
0.111593
0.10065
0.0856072
0.0654
-0.0333435
-0.0529025
-0.0671431
-0.0772676
-0.0848976
-0.0901201
-0.0930243
-0.0938238
-0.0927327
-0.0899465
-0.0856444
-0.079987
-0.0731152
-0.0651513
-0.056202
-0.0463611
-0.0357143
-0.0243432
-0.0123297
0.000239136
0.0132669
0.0266432
0.0402395
0.0539055
0.0674656
0.0807167
0.0934268
0.105335
0.116156
0.125581
0.133288
0.138951
0.142256
0.142911
0.14066
0.135304
0.126848
0.115345
0.0991765
0.0771815
-0.0510581
-0.0719941
-0.0870757
-0.0975919
-0.105306
-0.110335
-0.112805
-0.112974
-0.111099
-0.107414
-0.102129
-0.0954293
-0.0874733
-0.0783947
-0.0683058
-0.0573014
-0.0454643
-0.0328699
-0.0195921
-0.0057087
0.00869354
0.0235132
0.0386292
0.0538957
0.0691377
0.0841471
0.0986804
0.112457
0.125162
0.136447
0.145941
0.153259
0.158019
0.15986
0.158451
0.153529
0.145052
0.133046
0.115707
0.0917681
-0.0718747
-0.0943088
-0.110262
-0.121119
-0.128805
-0.133484
-0.135326
-0.134651
-0.131771
-0.126968
-0.120489
-0.11255
-0.10333
-0.0929735
-0.0815986
-0.0692993
-0.0561528
-0.0422257
-0.02758
-0.01228
0.00360134
0.0199764
0.0367362
0.0537444
0.070831
0.0877875
0.104362
0.120257
0.135128
0.148586
0.160205
0.169532
0.176105
0.179475
0.179218
0.174982
0.166663
0.154239
0.135691
0.109631
-0.0961765
-0.120264
-0.137124
-0.148247
-0.155753
-0.159868
-0.160831
-0.159038
-0.154875
-0.148683
-0.140757
-0.131347
-0.120654
-0.108837
-0.0960171
-0.0822849
-0.067709
-0.0523426
-0.0362317
-0.0194222
-0.00196781
0.0160631
0.0345797
0.0534609
0.0725484
0.0916389
0.110478
0.128754
0.146097
0.162075
0.176204
0.187952
0.196765
0.202084
0.203368
0.200146
0.192225
0.179509
0.159724
0.13134
-0.124426
-0.15037
-0.168172
-0.179449
-0.186564
-0.189828
-0.189578
-0.186316
-0.180518
-0.172602
-0.162921
-0.151766
-0.139362
-0.125881
-0.111444
-0.096136
-0.0800112
-0.063105
-0.0454416
-0.0270429
-0.00793692
0.0118338
0.0322034
0.0530738
0.0743059
0.0957096
0.117035
0.137964
0.158105
0.176985
0.194059
0.208711
0.220275
0.228059
0.231374
0.229593
0.222393
0.209571
0.188534
0.15759
-0.157196
-0.185259
-0.204037
-0.215303
-0.221724
-0.223747
-0.221841
-0.21665
-0.208772
-0.198719
-0.186914
-0.173692
-0.159305
-0.143934
-0.127697
-0.110667
-0.0928781
-0.0743417
-0.0550533
-0.0350037
-0.0141884
0.00738348
0.0296794
0.052633
0.0761336
0.100015
0.124041
0.147897
0.171178
0.193377
0.213888
0.232001
0.246925
0.25781
0.263777
0.263995
0.257958
0.245296
0.22302
0.189237
-0.195211
-0.225739
-0.245515
-0.256514
-0.261811
-0.262051
-0.257897
-0.250182
-0.239661
-0.226962
-0.212589
-0.196925
-0.180248
-0.162741
-0.144513
-0.125617
-0.10606
-0.0858188
-0.0648535
-0.0431159
-0.0205609
0.00284437
0.0271095
0.0522101
0.0780751
0.104573
0.131498
0.15855
0.185324
0.21129
0.235783
0.258002
0.277016
0.291787
0.301199
0.30415
0.299879
0.287767
0.264307
0.227347
-0.239415
-0.272866
-0.293628
-0.30396
-0.307508
-0.305213
-0.298016
-0.287003
-0.27313
-0.257163
-0.239696
-0.221162
-0.201855
-0.181952
-0.161543
-0.140647
-0.119233
-0.097236
-0.0745701
-0.0511393
-0.0268489
-0.00161517
0.0246237
0.051896
0.0801832
0.109404
0.139397
0.169897
0.200518
0.230721
0.259802
0.286868
0.31084
0.330465
0.344335
0.350998
0.349329
0.338342
0.313825
0.273276
-0.291078
-0.32805
-0.349707
-0.358744
-0.359625
-0.353745
-0.342435
-0.327122
-0.309009
-0.289025
-0.267854
-0.24597
-0.223668
-0.201107
-0.178335
-0.155326
-0.131997
-0.108227
-0.083875
-0.0587863
-0.032808
-0.00579627
0.0223732
0.0517932
0.0825116
0.114514
0.147703
0.181874
0.21668
0.251608
0.285931
0.318687
0.348649
0.374324
0.393957
0.405642
0.407752
0.398745
0.373427
0.328775
-0.351956
-0.393224
-0.415525
-0.422258
-0.419113
-0.40817
-0.391314
-0.370413
-0.346966
-0.322076
-0.29651
-0.270758
-0.245093
-0.219624
-0.194338
-0.169142
-0.143882
-0.118369
-0.0923929
-0.0657324
-0.0381665
-0.00948177
0.0205182
0.0520026
0.0851001
0.119882
0.156338
0.19435
0.233652
0.273785
0.314047
0.353438
0.390604
0.423806
0.450885
0.469362
0.476922
0.471199
0.445565
0.396178
-0.424572
-0.471105
-0.493465
-0.496258
-0.487055
-0.468975
-0.44466
-0.416533
-0.38643
-0.355614
-0.324901
-0.294754
-0.265379
-0.236796
-0.208901
-0.181503
-0.154359
-0.127195
-0.0997196
-0.0716354
-0.0426444
-0.0124558
0.0192078
0.0526029
0.0879533
0.125435
0.165151
0.207104
0.251149
0.296939
0.343854
0.390916
0.436698
0.479235
0.515932
0.54361
0.559029
0.558606
0.533568
0.478694
-0.512692
-0.56561
-0.586762
-0.582931
-0.564626
-0.536499
-0.502202
-0.464813
-0.426501
-0.388637
-0.352008
-0.316976
-0.283613
-0.251798
-0.221285
-0.191759
-0.162863
-0.134221
-0.105449
-0.0761622
-0.0459811
-0.0145313
0.0185528
0.0536234
0.0910125
0.131018
0.173886
0.219776
0.268717
0.320541
0.374796
0.430625
0.486627
0.540689
0.589792
0.629954
0.656735
0.664791
0.642073
0.580923
-0.622186
-0.682507
-0.699821
-0.68493
-0.652953
-0.61074
-0.563195
-0.514086
-0.465827
-0.419762
-0.376513
-0.336221
-0.298729
-0.263698
-0.230695
-0.199238
-0.168833
-0.138985
-0.109208
-0.0790251
-0.0479703
-0.0155831
0.0185931
0.0550119
0.0941224
0.136362
0.182143
0.231823
0.285665
0.343766
0.405952
0.471635
0.539608
0.607779
0.672823
0.729931
0.773204
0.794822
0.777713
0.709776
-0.76267
-0.830475
-0.838577
-0.805285
-0.752828
-0.691013
-0.626118
-0.562463
-0.502455
-0.447146
-0.396767
-0.351066
-0.309526
-0.271506
-0.23632
-0.203288
-0.171753
-0.141089
-0.110702
-0.0800225
-0.0484983
-0.0155851
0.019263
0.056601
0.0969993
0.141045
0.189338
0.242472
0.301007
0.365399
0.4359
0.512388
0.594114
0.679321
0.76468
0.844734
0.911997
0.955377
0.950205
0.876243
-0.950832
-1.02278
-1.01077
-0.946973
-0.864062
-0.775346
-0.688217
-0.607034
-0.533662
-0.46841
-0.410782
-0.359897
-0.314724
-0.274222
-0.237398
-0.203338
-0.171209
-0.14025
-0.10976
-0.0790802
-0.0475816
-0.0146436
0.0203607
0.0580806
0.0992037
0.144468
0.194674
0.25068
0.313398
0.383745
0.462563
0.550455
0.647506
0.752805
0.863639
0.97449
1.07658
1.15498
1.17409
1.09894
-1.21718
-1.27972
-1.22551
-1.11154
-0.984073
-0.859372
-0.744753
-0.643427
-0.555738
-0.480566
-0.416236
-0.360956
-0.313024
-0.270911
-0.233276
-0.198956
-0.166943
-0.136346
-0.10637
-0.0762839
-0.0453943
-0.013021
0.0215278
0.0589799
0.100125
0.145842
0.197124
0.255107
0.321092
0.39654
0.483047
0.582235
0.695507
0.823558
0.965371
1.11672
1.26884
1.40348
1.47115
1.41123
-1.61772
-1.63096
-1.49153
-1.29672
-1.10589
-0.935006
-0.788312
-0.665545
-0.563981
-0.480138
-0.410638
-0.352514
-0.303265
-0.26083
-0.223517
-0.18993
-0.158907
-0.129457
-0.100714
-0.0718976
-0.0422763
-0.0111336
0.0222625
0.058692
0.0990192
0.144233
0.195495
0.254196
0.322022
0.401018
0.493655
0.602847
0.731861
0.883978
1.06156
1.26423
1.48651
1.71008
1.8724
1.87275
-2.25447
-2.11587
-1.81359
-1.49443
-1.21742
-0.990513
-0.809414
-0.666451
-0.553622
-0.46401
-0.392064
-0.333468
-0.2849
-0.243802
-0.208187
-0.176484
-0.147429
-0.119974
-0.0932251
-0.0663858
-0.038717
-0.00949776
0.0220119
0.0566089
0.0951911
0.13881
0.18874
0.246563
0.314287
0.394499
0.490564
0.606856
0.74899
0.923945
1.13978
1.40421
1.72094
2.07939
2.41785
2.58911
-3.35592
-2.78318
-2.1727
-1.67585
-1.29258
-1.00573
-0.794146
-0.63727
-0.519326
-0.42917
-0.358969
-0.303179
-0.257836
-0.220057
-0.187701
-0.159136
-0.13308
-0.108495
-0.0845087
-0.0603526
-0.0353186
-0.00871699
0.0201618
0.0520877
0.0879393
0.128763
0.175855
0.230872
0.295995
0.374168
0.469453
0.587548
0.73653
0.927895
1.17797
1.50834
1.94099
2.49108
3.15796
3.79444
-5.52067
-3.66081
-2.43095
-1.71417
-1.24179
-0.921811
-0.704864
-0.553965
-0.445488
-0.365205
-0.304183
-0.256567
-0.2184
-0.186919
-0.160128
-0.136536
-0.114989
-0.0945606
-0.0744759
-0.0540564
-0.0326776
-0.00973128
0.0154085
0.0434235
0.0750947
0.11136
0.153391
0.202711
0.261363
0.332189
0.419271
0.528672
0.669678
0.857072
1.11541
1.48391
2.01598
2.8054
4.12342
6.0914
-9.20662
-4.51956
-2.30623
-1.42119
-0.958939
-0.682903
-0.512248
-0.400576
-0.322909
-0.26641
-0.223886
-0.190908
-0.164567
-0.142852
-0.124309
-0.107838
-0.092581
-0.0778387
-0.0630209
-0.0476067
-0.0311129
-0.0130685
0.00701137
0.0296525
0.0554537
0.0851276
0.119558
0.159884
0.207626
0.264893
0.334746
0.421852
0.533755
0.683744
0.897448
1.22411
1.75391
2.73326
5.06142
9.86893
)
;

boundaryField
{
    movingWall
    {
        type            zeroGradient;
    }
    fixedWalls
    {
        type            zeroGradient;
    }
    frontAndBack
    {
        type            empty;
    }
}


// ************************************************************************* //
