/*--------------------------------*- C++ -*----------------------------------*\
| =========                 |                                                 |
| \\      /  F ield         | OpenFOAM: The Open Source CFD Toolbox           |
|  \\    /   O peration     | Version:  2.4.0                                 |
|   \\  /    A nd           | Web:      www.OpenFOAM.org                      |
|    \\/     M anipulation  |                                                 |
\*---------------------------------------------------------------------------*/
FoamFile
{
    version     2.0;
    format      ascii;
    class       volVectorField;
    location    "0.7";
    object      U;
}
// * * * * * * * * * * * * * * * * * * * * * * * * * * * * * * * * * * * * * //

dimensions      [0 1 -1 0 0 0 0];

internalField   nonuniform List<vector> 
1600
(
(6.04681e-05 -6.05898e-05 0)
(0.000155894 -5.71854e-05 0)
(0.000156934 -7.06623e-06 0)
(6.65511e-06 5.24304e-05 0)
(-0.000303345 0.000107968 0)
(-0.000756659 0.000154834 0)
(-0.00132882 0.000191667 0)
(-0.00199283 0.00021851 0)
(-0.00272148 0.000235938 0)
(-0.00348847 0.000244699 0)
(-0.00426907 0.000245585 0)
(-0.00504038 0.000239379 0)
(-0.00578156 0.000226843 0)
(-0.00647383 0.000208711 0)
(-0.00710056 0.000185692 0)
(-0.00764726 0.000158478 0)
(-0.00810159 0.00012775 0)
(-0.00845341 9.41898e-05 0)
(-0.0086948 5.8486e-05 0)
(-0.0088201 2.13468e-05 0)
(-0.00882604 -1.64936e-05 0)
(-0.00871176 -5.42684e-05 0)
(-0.00847894 -9.11748e-05 0)
(-0.0081319 -0.000126373 0)
(-0.00767763 -0.000158991 0)
(-0.00712592 -0.000188131 0)
(-0.00648935 -0.000212879 0)
(-0.00578326 -0.000232322 0)
(-0.00502569 -0.00024556 0)
(-0.00423725 -0.000251727 0)
(-0.00344087 -0.00025001 0)
(-0.00266148 -0.000239668 0)
(-0.00192562 -0.000220065 0)
(-0.00126078 -0.000190719 0)
(-0.000694556 -0.000151431 0)
(-0.000253177 -0.000102624 0)
(4.0845e-05 -4.61808e-05 0)
(0.000174377 1.26633e-05 0)
(0.000160386 6.02099e-05 0)
(6.02744e-05 6.00376e-05 0)
(5.86486e-05 -0.0001571 0)
(7.25008e-05 -6.9577e-05 0)
(-0.000178513 0.000182309 0)
(-0.000772884 0.000476994 0)
(-0.00172512 0.000761136 0)
(-0.00300867 0.00100958 0)
(-0.00457495 0.00121102 0)
(-0.00636455 0.00136154 0)
(-0.00831369 0.00146105 0)
(-0.0103581 0.00151146 0)
(-0.0124355 0.00151574 0)
(-0.0144871 0.00147745 0)
(-0.0164581 0.00140046 0)
(-0.0182991 0.00128883 0)
(-0.0199658 0.00114669 0)
(-0.0214192 0.000978236 0)
(-0.0226264 0.000787739 0)
(-0.0235603 0.000579532 0)
(-0.0241996 0.000358047 0)
(-0.0245294 0.000127849 0)
(-0.0245413 -0.000106347 0)
(-0.0242335 -0.000339655 0)
(-0.0236108 -0.000567014 0)
(-0.0226852 -0.000783202 0)
(-0.0214761 -0.000982869 0)
(-0.0200097 -0.0011606 0)
(-0.0183197 -0.00131098 0)
(-0.0164469 -0.00142872 0)
(-0.0144388 -0.00150876 0)
(-0.012349 -0.00154645 0)
(-0.0102367 -0.00153769 0)
(-0.00816512 -0.00147921 0)
(-0.00620049 -0.00136884 0)
(-0.00440954 -0.00120602 0)
(-0.0028567 -0.000992654 0)
(-0.00159972 -0.000734796 0)
(-0.000683068 -0.000446007 0)
(-0.000126872 -0.000153455 0)
(9.20358e-05 8.84187e-05 0)
(6.17609e-05 0.000160773 0)
(1.14487e-05 -0.000162903 0)
(-0.000171963 0.000178387 0)
(-0.000804203 0.000814005 0)
(-0.00193144 0.00153662 0)
(-0.00355459 0.00223918 0)
(-0.00563767 0.00286218 0)
(-0.00811588 0.00337403 0)
(-0.0109077 0.00376033 0)
(-0.0139236 0.00401692 0)
(-0.0170715 0.00414574 0)
(-0.0202607 0.00415248 0)
(-0.0234043 0.00404515 0)
(-0.0264209 0.00383315 0)
(-0.0292362 0.00352684 0)
(-0.0317831 0.0031371 0)
(-0.034003 0.00267525 0)
(-0.0358456 0.00215294 0)
(-0.0372697 0.00158213 0)
(-0.0382433 0.000975101 0)
(-0.0387439 0.000344531 0)
(-0.038759 -0.000296507 0)
(-0.038286 -0.000934513 0)
(-0.0373328 -0.00155558 0)
(-0.035918 -0.00214543 0)
(-0.0340711 -0.00268958 0)
(-0.0318322 -0.00317344 0)
(-0.0292524 -0.00358259 0)
(-0.0263932 -0.00390311 0)
(-0.0233256 -0.00412192 0)
(-0.0201296 -0.00422725 0)
(-0.0168926 -0.00420922 0)
(-0.0137076 -0.00406057 0)
(-0.0106704 -0.00377759 0)
(-0.00787658 -0.00336158 0)
(-0.00541655 -0.00282095 0)
(-0.00336982 -0.00217506 0)
(-0.00179607 -0.00146057 0)
(-0.000723212 -0.000741279 0)
(-0.000138868 -0.000126438 0)
(1.76813e-05 0.000180123 0)
(-4.54171e-05 -2.20806e-05 0)
(-0.000464479 0.000768106 0)
(-0.00153575 0.00194177 0)
(-0.00324256 0.00322733 0)
(-0.00555583 0.00446911 0)
(-0.00842457 0.00557219 0)
(-0.0117678 0.00648154 0)
(-0.0154855 0.00716905 0)
(-0.0194679 0.00762409 0)
(-0.0236016 0.00784735 0)
(-0.0277737 0.00784696 0)
(-0.0318753 0.00763594 0)
(-0.0358041 0.00723057 0)
(-0.0394655 0.00664924 0)
(-0.0427745 0.00591184 0)
(-0.0456561 0.00503929 0)
(-0.0480463 0.00405335 0)
(-0.0498924 0.00297649 0)
(-0.0511534 0.00183191 0)
(-0.0518008 0.000643524 0)
(-0.0518186 -0.000563979 0)
(-0.0512039 -0.00176517 0)
(-0.049967 -0.00293393 0)
(-0.048132 -0.00404357 0)
(-0.0457365 -0.00506708 0)
(-0.0428321 -0.00597745 0)
(-0.0394838 -0.00674816 0)
(-0.0357695 -0.00735376 0)
(-0.0317794 -0.00777062 0)
(-0.0276143 -0.00797786 0)
(-0.0233839 -0.00795846 0)
(-0.0192043 -0.00770064 0)
(-0.0151945 -0.00719966 0)
(-0.0114724 -0.00646034 0)
(-0.0081493 -0.00550055 0)
(-0.00532319 -0.00435677 0)
(-0.00306952 -0.00309258 0)
(-0.00143015 -0.0018102 0)
(-0.00042012 -0.000669648 0)
(-3.66901e-05 5.98522e-05 0)
(-0.000100507 0.000278605 0)
(-0.000761383 0.00172952 0)
(-0.0022904 0.00359277 0)
(-0.00459474 0.0055573 0)
(-0.0076049 0.00743034 0)
(-0.0112488 0.00908676 0)
(-0.0154268 0.0104496 0)
(-0.0200207 0.0114767 0)
(-0.0249028 0.0121503 0)
(-0.0299417 0.0124692 0)
(-0.0350067 0.0124438 0)
(-0.0399711 0.0120926 0)
(-0.0447156 0.0114394 0)
(-0.0491298 0.010512 0)
(-0.0531139 0.0093408 0)
(-0.0565801 0.00795823 0)
(-0.0594531 0.00639819 0)
(-0.061671 0.00469589 0)
(-0.0631856 0.00288774 0)
(-0.0639634 0.00101137 0)
(-0.0639857 -0.00089444 0)
(-0.0632491 -0.00278979 0)
(-0.0617658 -0.00463377 0)
(-0.0595641 -0.0063847 0)
(-0.0566883 -0.0080005 0)
(-0.0531988 -0.00943931 0)
(-0.0491718 -0.0106601 0)
(-0.0446984 -0.0116239 0)
(-0.0398837 -0.0122946 0)
(-0.0348455 -0.0126408 0)
(-0.0297113 -0.0126373 0)
(-0.024616 -0.0122675 0)
(-0.0196979 -0.0115258 0)
(-0.0150939 -0.0104213 0)
(-0.010934 -0.00898245 0)
(-0.00733502 -0.0072635 0)
(-0.00439101 -0.00535409 0)
(-0.00216413 -0.00339067 0)
(-0.000707392 -0.00157366 0)
(-8.9635e-05 -0.000214697 0)
(-0.000150763 0.000732771 0)
(-0.00104619 0.00306338 0)
(-0.00303047 0.00577431 0)
(-0.00593219 0.00853387 0)
(-0.00963625 0.0111239 0)
(-0.0140448 0.013396 0)
(-0.0190363 0.015255 0)
(-0.0244732 0.0166468 0)
(-0.0302105 0.0175469 0)
(-0.0361003 0.0179529 0)
(-0.0419963 0.0178779 0)
(-0.0477571 0.0173463 0)
(-0.0532493 0.0163906 0)
(-0.0583496 0.0150488 0)
(-0.0629465 0.0133633 0)
(-0.0669418 0.0113794 0)
(-0.0702511 0.00914493 0)
(-0.0728052 0.00670956 0)
(-0.0745502 0.00412481 0)
(-0.0754484 0.00144393 0)
(-0.0754788 -0.00127821 0)
(-0.0746374 -0.00398518 0)
(-0.0729378 -0.00661922 0)
(-0.0704113 -0.00912158 0)
(-0.0671071 -0.0114331 0)
(-0.0630927 -0.013495 0)
(-0.0584526 -0.0152499 0)
(-0.0532887 -0.0166432 0)
(-0.0477182 -0.0176251 0)
(-0.0418724 -0.0181521 0)
(-0.0358939 -0.0181898 0)
(-0.0299337 -0.0177159 0)
(-0.0241471 -0.0167236 0)
(-0.0186889 -0.0152259 0)
(-0.0137079 -0.0132612 0)
(-0.00934137 -0.0109003 0)
(-0.0057054 -0.00825586 0)
(-0.00288744 -0.00549255 0)
(-0.000983902 -0.00284099 0)
(-0.000137928 -0.000637862 0)
(-0.000196086 0.00133009 0)
(-0.00131453 0.00475828 0)
(-0.00374213 0.00847872 0)
(-0.00723169 0.0121514 0)
(-0.0116209 0.0155425 0)
(-0.016783 0.0184875 0)
(-0.0225721 0.0208782 0)
(-0.0288296 0.022651 0)
(-0.0353924 0.0237775 0)
(-0.0420968 0.024255 0)
(-0.0487819 0.0241006 0)
(-0.0552935 0.0233455 0)
(-0.0614862 0.0220317 0)
(-0.0672261 0.0202091 0)
(-0.072392 0.0179329 0)
(-0.0768774 0.0152628 0)
(-0.0805909 0.0122616 0)
(-0.0834571 0.008995 0)
(-0.0854176 0.00553107 0)
(-0.0864314 0.00194015 0)
(-0.0864753 -0.00170523 0)
(-0.0855445 -0.00533058 0)
(-0.0836534 -0.00885969 0)
(-0.0808352 -0.0122151 0)
(-0.0771427 -0.0153189 0)
(-0.0726484 -0.0180936 0)
(-0.0674434 -0.0204639 0)
(-0.0616379 -0.0223583 0)
(-0.0553588 -0.023711 0)
(-0.048749 -0.0244653 0)
(-0.0419642 -0.0245763 0)
(-0.03517 -0.0240146 0)
(-0.028538 -0.0227708 0)
(-0.0222408 -0.0208607 0)
(-0.0164473 -0.0183306 0)
(-0.0113171 -0.0152655 0)
(-0.00699166 -0.0117969 0)
(-0.00358721 -0.00811166 0)
(-0.00124549 -0.00446231 0)
(-0.000181443 -0.00119994 0)
(-0.000237405 0.00206084 0)
(-0.00156761 0.00679966 0)
(-0.0044243 0.0116926 0)
(-0.00848902 0.0163984 0)
(-0.0135526 0.0206751 0)
(-0.0194577 0.0243486 0)
(-0.026032 0.0273023 0)
(-0.0330944 0.0294678 0)
(-0.0404627 0.030815 0)
(-0.0479573 0.0313434 0)
(-0.0554034 0.0310756 0)
(-0.0626347 0.0300515 0)
(-0.0694954 0.0283239 0)
(-0.0758425 0.0259553 0)
(-0.0815471 0.0230153 0)
(-0.0864957 0.0195789 0)
(-0.0905914 0.0157251 0)
(-0.0937542 0.0115368 0)
(-0.0959218 0.00709948 0)
(-0.0970504 0.00250184 0)
(-0.0971148 -0.0021649 0)
(-0.0961094 -0.00680704 0)
(-0.0940482 -0.0113287 0)
(-0.0909657 -0.0156325 0)
(-0.0869169 -0.0196203 0)
(-0.0819774 -0.0231948 0)
(-0.0762435 -0.0262611 0)
(-0.0698315 -0.0287287 0)
(-0.0628767 -0.0305149 0)
(-0.0555315 -0.0315478 0)
(-0.0479638 -0.0317699 0)
(-0.0403531 -0.0311432 0)
(-0.0328871 -0.0296538 0)
(-0.0257573 -0.0273174 0)
(-0.0191539 -0.0241863 0)
(-0.0132614 -0.0203558 0)
(-0.00824908 -0.0159721 0)
(-0.00426419 -0.0112393 0)
(-0.00149398 -0.00642593 0)
(-0.000221197 -0.00189205 0)
(-0.000275857 0.00291724 0)
(-0.00180878 0.00917412 0)
(-0.00508189 0.0154023 0)
(-0.00970986 0.0212629 0)
(-0.0154378 0.0265111 0)
(-0.0220767 0.0309685 0)
(-0.0294267 0.0345154 0)
(-0.0372828 0.0370824 0)
(-0.0454429 0.0386412 0)
(-0.053711 0.0391965 0)
(-0.0618985 0.0387788 0)
(-0.0698278 0.0374383 0)
(-0.0773336 0.0352403 0)
(-0.0842651 0.0322615 0)
(-0.0904868 0.0285869 0)
(-0.0958801 0.0243078 0)
(-0.100343 0.0195206 0)
(-0.103793 0.0143259 0)
(-0.106164 0.00882763 0)
(-0.10741 0.00313342 0)
(-0.107503 -0.00264607 0)
(-0.106438 -0.00839714 0)
(-0.104226 -0.0140034 0)
(-0.100904 -0.0193467 0)
(-0.0965256 -0.0243076 0)
(-0.0911696 -0.0287675 0)
(-0.0849352 -0.0326105 0)
(-0.0779435 -0.0357259 0)
(-0.0703364 -0.0380119 0)
(-0.0622752 -0.0393792 0)
(-0.0539385 -0.0397558 0)
(-0.0455198 -0.0390923 0)
(-0.0372235 -0.0373675 0)
(-0.0292607 -0.0345947 0)
(-0.0218449 -0.0308282 0)
(-0.0151875 -0.0261703 0)
(-0.00948789 -0.020778 0)
(-0.00492579 -0.0148684 0)
(-0.00173364 -0.00872238 0)
(-0.000258485 -0.00270766 0)
(-0.000312497 0.00389377 0)
(-0.0020419 0.0118713 0)
(-0.00572221 0.0195968 0)
(-0.0109044 0.026735 0)
(-0.0172888 0.0330418 0)
(-0.0246547 0.0383392 0)
(-0.0327735 0.0425088 0)
(-0.0414152 0.0454845 0)
(-0.0503572 0.0472438 0)
(-0.0593863 0.0477996 0)
(-0.0683007 0.047193 0)
(-0.0769115 0.0454872 0)
(-0.085045 0.0427618 0)
(-0.0925433 0.0391092 0)
(-0.099266 0.0346309 0)
(-0.10509 0.029436 0)
(-0.10991 0.0236386 0)
(-0.113641 0.0173577 0)
(-0.116214 0.0107164 0)
(-0.117582 0.00384142 0)
(-0.117715 -0.00313668 0)
(-0.116604 -0.0100838 0)
(-0.114262 -0.0168627 0)
(-0.110723 -0.0233334 0)
(-0.10604 -0.0293547 0)
(-0.100294 -0.0347856 0)
(-0.0935839 -0.0394876 0)
(-0.0860352 -0.0433282 0)
(-0.0777946 -0.0461841 0)
(-0.0690313 -0.0479465 0)
(-0.0599344 -0.0485262 0)
(-0.0507109 -0.0478591 0)
(-0.0415825 -0.0459136 0)
(-0.0327813 -0.0426967 0)
(-0.0245457 -0.0382613 0)
(-0.017116 -0.0327127 0)
(-0.0107237 -0.0262154 0)
(-0.00558233 -0.0189962 0)
(-0.00196954 -0.0113467 0)
(-0.000294569 -0.00364305 0)
(-0.000348226 0.00498714 0)
(-0.00227077 0.0148848 0)
(-0.0063531 0.0242688 0)
(-0.0120844 0.0328079 0)
(-0.0191208 0.0402613 0)
(-0.0272094 0.046455 0)
(-0.036092 0.0512762 0)
(-0.0455131 0.0546664 0)
(-0.0552288 0.0566129 0)
(-0.0650086 0.0571406 0)
(-0.0746369 0.0563045 0)
(-0.0839146 0.054183 0)
(-0.09266 0.0508726 0)
(-0.10071 0.046483 0)
(-0.107919 0.041134 0)
(-0.114161 0.0349527 0)
(-0.11933 0.0280722 0)
(-0.123337 0.0206301 0)
(-0.126113 0.0127687 0)
(-0.127608 0.00463398 0)
(-0.127792 -0.0036235 0)
(-0.126653 -0.0118493 0)
(-0.124201 -0.0198849 0)
(-0.120468 -0.0275686 0)
(-0.115508 -0.0347365 0)
(-0.109397 -0.0412242 0)
(-0.102237 -0.0468695 0)
(-0.0941534 -0.0515158 0)
(-0.0852976 -0.0550165 0)
(-0.0758449 -0.0572402 0)
(-0.0659945 -0.058077 0)
(-0.0559669 -0.057445 0)
(-0.0460016 -0.0552979 0)
(-0.0363527 -0.0516323 0)
(-0.0272853 -0.0464955 0)
(-0.0190707 -0.0399924 0)
(-0.0119742 -0.032291 0)
(-0.00624506 -0.0236261 0)
(-0.00220679 -0.0142992 0)
(-0.000330591 -0.00469739 0)
(-0.000383794 0.00619603 0)
(-0.00249882 0.0182117 0)
(-0.00698214 0.0294152 0)
(-0.0132615 0.0394788 0)
(-0.0209488 0.0481667 0)
(-0.0297582 0.0553125 0)
(-0.0394016 0.0608129 0)
(-0.0495966 0.0646215 0)
(-0.0600777 0.0667396 0)
(-0.0705971 0.0672081 0)
(-0.0809256 0.0660995 0)
(-0.0908544 0.0635107 0)
(-0.100195 0.0595572 0)
(-0.108778 0.0543682 0)
(-0.116458 0.0480828 0)
(-0.123105 0.0408477 0)
(-0.128613 0.032815 0)
(-0.132892 0.0241414 0)
(-0.135872 0.0149881 0)
(-0.137501 0.00552029 0)
(-0.137747 -0.00409202 0)
(-0.136598 -0.0136742 0)
(-0.134059 -0.023047 0)
(-0.13016 -0.0320266 0)
(-0.12495 -0.040426 0)
(-0.118504 -0.0480568 0)
(-0.110922 -0.0547316 0)
(-0.102329 -0.060268 0)
(-0.0928789 -0.0644932 0)
(-0.0827517 -0.0672504 0)
(-0.0721558 -0.068405 0)
(-0.061325 -0.0678529 0)
(-0.0505168 -0.0655286 0)
(-0.0400084 -0.0614139 0)
(-0.0300934 -0.0555457 0)
(-0.0210759 -0.0480241 0)
(-0.0132576 -0.0390181 0)
(-0.00692525 -0.028768 0)
(-0.00245026 -0.0175858 0)
(-0.000367565 -0.00587254 0)
(-0.000419827 0.00752086 0)
(-0.00272908 0.0218529 0)
(-0.00761628 0.0350372 0)
(-0.0144467 0.0467484 0)
(-0.0227871 0.056758 0)
(-0.0323178 0.06491 0)
(-0.0427193 0.071115 0)
(-0.0536824 0.0753428 0)
(-0.064919 0.0776136 0)
(-0.076164 0.0779888 0)
(-0.0871753 0.0765621 0)
(-0.097735 0.0734523 0)
(-0.107649 0.0687969 0)
(-0.116745 0.0627466 0)
(-0.124875 0.0554615 0)
(-0.13191 0.0471083 0)
(-0.137744 0.0378589 0)
(-0.142287 0.0278889 0)
(-0.145469 0.017378 0)
(-0.147238 0.00651002 0)
(-0.147561 -0.00452637 0)
(-0.146421 -0.0155372 0)
(-0.143821 -0.0263227 0)
(-0.139786 -0.0366777 0)
(-0.134361 -0.0463919 0)
(-0.127615 -0.0552522 0)
(-0.119646 -0.0630448 0)
(-0.110575 -0.0695594 0)
(-0.100557 -0.0745945 0)
(-0.0897758 -0.077964 0)
(-0.0784467 -0.0795045 0)
(-0.0668164 -0.0790849 0)
(-0.0551603 -0.0766152 0)
(-0.04378 -0.0720566 0)
(-0.0329985 -0.0654309 0)
(-0.0231555 -0.0568287 0)
(-0.0145915 -0.0464164 0)
(-0.00763374 -0.0344387 0)
(-0.00270457 -0.021218 0)
(-0.000406403 -0.00717291 0)
(-0.000456859 0.00896356 0)
(-0.00296425 0.0258125 0)
(-0.00826182 0.0411394 0)
(-0.0156501 0.0546212 0)
(-0.0246486 0.0660378 0)
(-0.0349023 0.0752472 0)
(-0.0460594 0.0821779 0)
(-0.0577825 0.0868213 0)
(-0.069761 0.0892215 0)
(-0.0817126 0.0894648 0)
(-0.0933831 0.0876708 0)
(-0.104547 0.0839842 0)
(-0.115005 0.0785672 0)
(-0.124584 0.0715944 0)
(-0.133137 0.0632484 0)
(-0.140536 0.0537171 0)
(-0.146677 0.0431918 0)
(-0.151472 0.031867 0)
(-0.154853 0.0199402 0)
(-0.156767 0.0076126 0)
(-0.157179 -0.00490947 0)
(-0.15607 -0.0174139 0)
(-0.153439 -0.0296817 0)
(-0.149304 -0.0414868 0)
(-0.143704 -0.0525963 0)
(-0.136703 -0.0627717 0)
(-0.12839 -0.0717719 0)
(-0.118883 -0.0793568 0)
(-0.108333 -0.0852931 0)
(-0.0969269 -0.0893615 0)
(-0.0848844 -0.0913652 0)
(-0.072464 -0.0911402 0)
(-0.0599589 -0.0885659 0)
(-0.047695 -0.0835768 0)
(-0.0360269 -0.0761734 0)
(-0.0253319 -0.0664319 0)
(-0.0159927 -0.0545122 0)
(-0.0083808 -0.0406612 0)
(-0.00297401 -0.0252124 0)
(-0.000447942 -0.00860522 0)
(-0.000495363 0.0105274 0)
(-0.0032068 0.0300975 0)
(-0.00892456 0.0477304 0)
(-0.0168807 0.0631045 0)
(-0.0265447 0.0760105 0)
(-0.037524 0.0863236 0)
(-0.0494325 0.0939955 0)
(-0.061904 0.0990445 0)
(-0.0746051 0.101544 0)
(-0.0872367 0.101611 0)
(-0.0995335 0.0993963 0)
(-0.111264 0.0950738 0)
(-0.122226 0.0888344 0)
(-0.132249 0.0808788 0)
(-0.141186 0.0714137 0)
(-0.148916 0.0606488 0)
(-0.155337 0.0487952 0)
(-0.160366 0.0360653 0)
(-0.163937 0.0226733 0)
(-0.165997 0.00883641 0)
(-0.166511 -0.00522322 0)
(-0.165457 -0.0192771 0)
(-0.162829 -0.0330886 0)
(-0.158637 -0.0464121 0)
(-0.152913 -0.0589926 0)
(-0.145709 -0.0705668 0)
(-0.137108 -0.0808651 0)
(-0.127219 -0.0896158 0)
(-0.116188 -0.0965509 0)
(-0.104197 -0.101414 0)
(-0.0914727 -0.103968 0)
(-0.0782808 -0.104011 0)
(-0.0649317 -0.101385 0)
(-0.0517761 -0.09599 0)
(-0.0392014 -0.0877977 0)
(-0.0276254 -0.0768638 0)
(-0.017477 -0.0633373 0)
(-0.00917621 -0.0474647 0)
(-0.00326271 -0.0295904 0)
(-0.000492974 -0.0101784 0)
(-0.000535793 0.0122168 0)
(-0.00345908 0.0347178 0)
(-0.00961002 0.0548216 0)
(-0.0181471 0.0722082 0)
(-0.0284857 0.0866814 0)
(-0.0401926 0.0981381 0)
(-0.0528458 0.106558 0)
(-0.0660485 0.111994 0)
(-0.0794446 0.114554 0)
(-0.092719 0.114393 0)
(-0.105597 0.111698 0)
(-0.117843 0.106677 0)
(-0.129255 0.0995522 0)
(-0.139667 0.0905546 0)
(-0.148938 0.0799159 0)
(-0.156952 0.0678682 0)
(-0.163615 0.054642 0)
(-0.16885 0.0404667 0)
(-0.172595 0.0255715 0)
(-0.1748 0.0101878 0)
(-0.175428 -0.005449 0)
(-0.174455 -0.0210962 0)
(-0.171867 -0.0365019 0)
(-0.167669 -0.0514029 0)
(-0.16188 -0.0655235 0)
(-0.154542 -0.0785761 0)
(-0.145724 -0.0902624 0)
(-0.135523 -0.100277 0)
(-0.124076 -0.108315 0)
(-0.11156 -0.114077 0)
(-0.0981989 -0.117283 0)
(-0.0842671 -0.117682 0)
(-0.0700891 -0.115072 0)
(-0.05604 -0.109309 0)
(-0.0425414 -0.100328 0)
(-0.0300547 -0.0881576 0)
(-0.019059 -0.0729285 0)
(-0.0100293 -0.0548838 0)
(-0.00357465 -0.0343784 0)
(-0.000542282 -0.0119034 0)
(-0.000578619 0.0140376 0)
(-0.00372354 0.0396859 0)
(-0.0103239 0.0624277 0)
(-0.0194579 0.0819446 0)
(-0.0304813 0.0980563 0)
(-0.0429167 0.110687 0)
(-0.056303 0.119852 0)
(-0.070212 0.125643 0)
(-0.0842646 0.128215 0)
(-0.0981309 0.127764 0)
(-0.111529 0.12452 0)
(-0.124222 0.118732 0)
(-0.136013 0.110659 0)
(-0.146741 0.100561 0)
(-0.156276 0.0886988 0)
(-0.164513 0.0753264 0)
(-0.171367 0.0606935 0)
(-0.176768 0.0450449 0)
(-0.180662 0.0286228 0)
(-0.183003 0.0116697 0)
(-0.183755 -0.00556824 0)
(-0.182889 -0.0228375 0)
(-0.180387 -0.0398737 0)
(-0.176241 -0.0563989 0)
(-0.17046 -0.072119 0)
(-0.16307 -0.0867231 0)
(-0.154123 -0.0998845 0)
(-0.143701 -0.111264 0)
(-0.131925 -0.120514 0)
(-0.118962 -0.127291 0)
(-0.105031 -0.131262 0)
(-0.0904086 -0.132122 0)
(-0.075431 -0.129614 0)
(-0.0604967 -0.12354 0)
(-0.0460623 -0.113788 0)
(-0.032636 -0.100348 0)
(-0.0207529 -0.0833268 0)
(-0.0109494 -0.0629586 0)
(-0.00391388 -0.0396072 0)
(-0.000596669 -0.0137935 0)
(-0.00062438 0.0159967 0)
(-0.00400296 0.0450172 0)
(-0.0110725 0.0705663 0)
(-0.0208222 0.0923275 0)
(-0.0325416 0.110141 0)
(-0.0457037 0.123963 0)
(-0.0598052 0.133854 0)
(-0.074385 0.139956 0)
(-0.0890411 0.142473 0)
(-0.103431 0.141658 0)
(-0.117268 0.137788 0)
(-0.130318 0.13116 0)
(-0.142393 0.122071 0)
(-0.153344 0.110818 0)
(-0.163053 0.0976875 0)
(-0.171431 0.0829582 0)
(-0.178405 0.066897 0)
(-0.18392 0.0497623 0)
(-0.187928 0.0318066 0)
(-0.19039 0.0132804 0)
(-0.191271 -0.00556332 0)
(-0.19054 -0.0244641 0)
(-0.188171 -0.0431491 0)
(-0.184147 -0.061329 0)
(-0.17846 -0.0786943 0)
(-0.171118 -0.0949133 0)
(-0.162151 -0.109632 0)
(-0.151622 -0.122475 0)
(-0.13963 -0.133054 0)
(-0.126326 -0.140971 0)
(-0.111916 -0.145837 0)
(-0.0966737 -0.147284 0)
(-0.0809447 -0.144985 0)
(-0.0651478 -0.138679 0)
(-0.0497749 -0.128194 0)
(-0.035384 -0.113469 0)
(-0.022572 -0.0945761 0)
(-0.0119459 -0.0717337 0)
(-0.00428461 -0.045312 0)
(-0.000657007 -0.0158637 0)
(-0.000673743 0.0181029 0)
(-0.0043007 0.0507305 0)
(-0.0118633 0.0792585 0)
(-0.0222509 0.103373 0)
(-0.0346776 0.122939 0)
(-0.0485607 0.137955 0)
(-0.0633509 0.148534 0)
(-0.0785521 0.154879 0)
(-0.0937405 0.15726 0)
(-0.108563 0.15599 0)
(-0.122733 0.151407 0)
(-0.136025 0.143856 0)
(-0.148262 0.133683 0)
(-0.159314 0.12122 0)
(-0.169083 0.106785 0)
(-0.177497 0.0906782 0)
(-0.184503 0.0731824 0)
(-0.19006 0.0545674 0)
(-0.194133 0.0350925 0)
(-0.196691 0.015012 0)
(-0.197701 -0.00541865 0)
(-0.197132 -0.0259367 0)
(-0.194951 -0.0462658 0)
(-0.191126 -0.0661099 0)
(-0.185633 -0.0851482 0)
(-0.178458 -0.103032 0)
(-0.169606 -0.11938 0)
(-0.159111 -0.133785 0)
(-0.147046 -0.14581 0)
(-0.133537 -0.155006 0)
(-0.11877 -0.160914 0)
(-0.10301 -0.163095 0)
(-0.0866033 -0.161141 0)
(-0.0699861 -0.154712 0)
(-0.0536852 -0.143558 0)
(-0.0383112 -0.127553 0)
(-0.0245298 -0.106722 0)
(-0.0130285 -0.0812585 0)
(-0.00469149 -0.0515329 0)
(-0.000724279 -0.0181318 0)
(-0.000727582 0.0203665 0)
(-0.0046211 0.0568487 0)
(-0.012706 0.0885294 0)
(-0.0237574 0.115098 0)
(-0.0369027 0.136452 0)
(-0.0514958 0.152641 0)
(-0.0669362 0.163846 0)
(-0.0826919 0.170345 0)
(-0.0983182 0.172484 0)
(-0.113456 0.17065 0)
(-0.127823 0.165249 0)
(-0.141207 0.156688 0)
(-0.153454 0.14536 0)
(-0.164455 0.131637 0)
(-0.174139 0.11587 0)
(-0.182458 0.0983777 0)
(-0.189383 0.0794595 0)
(-0.194891 0.0593919 0)
(-0.198964 0.038437 0)
(-0.201581 0.0168482 0)
(-0.202716 -0.00512203 0)
(-0.202334 -0.0272144 0)
(-0.200397 -0.0491548 0)
(-0.196859 -0.0706462 0)
(-0.191676 -0.091362 0)
(-0.184808 -0.11094 0)
(-0.176231 -0.128978 0)
(-0.165943 -0.145034 0)
(-0.153984 -0.158628 0)
(-0.140444 -0.169247 0)
(-0.125481 -0.176365 0)
(-0.10934 -0.179452 0)
(-0.0923618 -0.178011 0)
(-0.0749932 -0.1716 0)
(-0.0577934 -0.159876 0)
(-0.0414285 -0.142627 0)
(-0.0266401 -0.119813 0)
(-0.0142081 -0.0915865 0)
(-0.00513978 -0.0583149 0)
(-0.000799648 -0.0206177 0)
(-0.000787085 0.0228007 0)
(-0.00496998 0.0634001 0)
(-0.0136131 0.0984095 0)
(-0.0253592 0.127523 0)
(-0.039234 0.150678 0)
(-0.0545183 0.167993 0)
(-0.0705553 0.17973 0)
(-0.0867755 0.186261 0)
(-0.102716 0.188023 0)
(-0.118017 0.185494 0)
(-0.132408 0.179157 0)
(-0.1457 0.169486 0)
(-0.157765 0.15693 0)
(-0.168527 0.141904 0)
(-0.177948 0.124787 0)
(-0.18601 0.105921 0)
(-0.192714 0.0856145 0)
(-0.198061 0.0641484 0)
(-0.202051 0.0417822 0)
(-0.204678 0.0187629 0)
(-0.205921 -0.00466616 0)
(-0.20575 -0.0282558 0)
(-0.204116 -0.0517407 0)
(-0.200961 -0.0748302 0)
(-0.196219 -0.0971983 0)
(-0.189821 -0.118476 0)
(-0.181707 -0.138244 0)
(-0.171836 -0.15603 0)
(-0.160201 -0.17131 0)
(-0.146848 -0.183508 0)
(-0.131896 -0.192018 0)
(-0.115557 -0.196215 0)
(-0.0981539 -0.19549 0)
(-0.0801371 -0.189283 0)
(-0.0620934 -0.17713 0)
(-0.0447451 -0.15871 0)
(-0.0289176 -0.133893 0)
(-0.0154973 -0.102776 0)
(-0.00563584 -0.0657086 0)
(-0.000884549 -0.0233448 0)
(-0.0008539 0.0254221 0)
(-0.00535526 0.07042 0)
(-0.0146019 0.108936 0)
(-0.0270794 0.14067 0)
(-0.0416935 0.165612 0)
(-0.0576399 0.183968 0)
(-0.0741994 0.196104 0)
(-0.0907649 0.202505 0)
(-0.10686 0.203724 0)
(-0.122131 0.200341 0)
(-0.136329 0.19293 0)
(-0.149297 0.182042 0)
(-0.160946 0.168185 0)
(-0.171241 0.151819 0)
(-0.180183 0.133351 0)
(-0.187795 0.113142 0)
(-0.194108 0.0915083 0)
(-0.199155 0.068728 0)
(-0.20296 0.0450533 0)
(-0.205531 0.0207181 0)
(-0.20686 -0.0040504 0)
(-0.206916 -0.0290202 0)
(-0.205646 -0.0539431 0)
(-0.202978 -0.0785423 0)
(-0.198822 -0.102501 0)
(-0.193079 -0.125451 0)
(-0.185648 -0.146963 0)
(-0.176438 -0.16654 0)
(-0.16539 -0.183615 0)
(-0.152494 -0.197551 0)
(-0.137814 -0.207655 0)
(-0.121515 -0.213195 0)
(-0.103886 -0.213432 0)
(-0.0853691 -0.207664 0)
(-0.0665707 -0.195277 0)
(-0.0482685 -0.175807 0)
(-0.0313789 -0.149006 0)
(-0.0169111 -0.114888 0)
(-0.00618757 -0.0737713 0)
(-0.000980819 -0.0263398 0)
(-0.000930349 0.0282523 0)
(-0.00578788 0.0779537 0)
(-0.0156952 0.120153 0)
(-0.0289489 0.154562 0)
(-0.0443098 0.181241 0)
(-0.0608744 0.200504 0)
(-0.0778551 0.212856 0)
(-0.0946087 0.21892 0)
(-0.110652 0.219388 0)
(-0.125649 0.214961 0)
(-0.139386 0.206321 0)
(-0.151748 0.1941 0)
(-0.162698 0.178871 0)
(-0.172251 0.161139 0)
(-0.180459 0.141338 0)
(-0.187389 0.119844 0)
(-0.193113 0.0969736 0)
(-0.197698 0.0729989 0)
(-0.201193 0.0481571 0)
(-0.203627 0.0226621 0)
(-0.205004 -0.00328249 0)
(-0.205298 -0.0294702 0)
(-0.204452 -0.0556781 0)
(-0.20238 -0.0816528 0)
(-0.198969 -0.107096 0)
(-0.194086 -0.13165 0)
(-0.187584 -0.154884 0)
(-0.179322 -0.176286 0)
(-0.169174 -0.195252 0)
(-0.157062 -0.211083 0)
(-0.142978 -0.222997 0)
(-0.127021 -0.230144 0)
(-0.10943 -0.231637 0)
(-0.0906189 -0.226602 0)
(-0.0712006 -0.21424 0)
(-0.0520041 -0.193907 0)
(-0.0340433 -0.165191 0)
(-0.0184685 -0.127991 0)
(-0.00680517 -0.0825683 0)
(-0.00109088 -0.0296345 0)
(-0.00101974 0.0313193 0)
(-0.00628309 0.0860593 0)
(-0.0169248 0.13212 0)
(-0.0310085 0.169228 0)
(-0.0471192 0.197541 0)
(-0.0642369 0.217519 0)
(-0.0815006 0.229838 0)
(-0.0982356 0.235301 0)
(-0.113964 0.234763 0)
(-0.128382 0.229071 0)
(-0.141324 0.219025 0)
(-0.15274 0.205351 0)
(-0.162653 0.188685 0)
(-0.171144 0.169577 0)
(-0.17832 0.148486 0)
(-0.184302 0.125794 0)
(-0.189208 0.101815 0)
(-0.19314 0.0768055 0)
(-0.19618 0.0509813 0)
(-0.19838 0.0245287 0)
(-0.199756 -0.00238023 0)
(-0.20029 -0.029573 0)
(-0.199923 -0.0568612 0)
(-0.198558 -0.0840245 0)
(-0.196058 -0.110794 0)
(-0.192258 -0.136833 0)
(-0.186964 -0.161724 0)
(-0.179973 -0.184948 0)
(-0.171088 -0.205873 0)
(-0.160149 -0.223746 0)
(-0.147057 -0.237695 0)
(-0.131825 -0.246743 0)
(-0.114614 -0.249836 0)
(-0.0957867 -0.245897 0)
(-0.0759438 -0.233902 0)
(-0.0559546 -0.212971 0)
(-0.0369341 -0.182478 0)
(-0.0201936 -0.142155 0)
(-0.00750225 -0.0921752 0)
(-0.00121805 -0.0332667 0)
(-0.00112682 0.0346607 0)
(-0.00686217 0.0948129 0)
(-0.0183333 0.144907 0)
(-0.0333119 0.184697 0)
(-0.0501661 0.214473 0)
(-0.0677406 0.234893 0)
(-0.0850986 0.246854 0)
(-0.101543 0.251381 0)
(-0.11662 0.24953 0)
(-0.130078 0.242317 0)
(-0.141824 0.230675 0)
(-0.151886 0.215424 0)
(-0.160367 0.197271 0)
(-0.167423 0.176801 0)
(-0.173229 0.154493 0)
(-0.177963 0.130729 0)
(-0.181793 0.105809 0)
(-0.184862 0.0799697 0)
(-0.187284 0.0533952 0)
(-0.189134 0.0262368 0)
(-0.190448 -0.0013728 0)
(-0.191214 -0.0293034 0)
(-0.191374 -0.0574104 0)
(-0.190824 -0.0855167 0)
(-0.189407 -0.113394 0)
(-0.186923 -0.140742 0)
(-0.183135 -0.167167 0)
(-0.177775 -0.192159 0)
(-0.170568 -0.215073 0)
(-0.161255 -0.235112 0)
(-0.149632 -0.251319 0)
(-0.135596 -0.262586 0)
(-0.119205 -0.267675 0)
(-0.100733 -0.265275 0)
(-0.0807402 -0.254084 0)
(-0.0601178 -0.232924 0)
(-0.0400795 -0.200883 0)
(-0.0221189 -0.157457 0)
(-0.00829747 -0.102681 0)
(-0.00136697 -0.0372827 0)
(-0.00125856 0.0383274 0)
(-0.00755514 0.104315 0)
(-0.0199789 0.158605 0)
(-0.0359282 0.200997 0)
(-0.0535021 0.231973 0)
(-0.0713905 0.252458 0)
(-0.0885832 0.263639 0)
(-0.104381 0.266818 0)
(-0.118378 0.263292 0)
(-0.130405 0.254269 0)
(-0.14047 0.240827 0)
(-0.1487 0.223888 0)
(-0.155295 0.204218 0)
(-0.160497 0.182434 0)
(-0.164556 0.159022 0)
(-0.167714 0.134355 0)
(-0.170189 0.108711 0)
(-0.172166 0.0822944 0)
(-0.173792 0.0552518 0)
(-0.175166 0.0276913 0)
(-0.176342 -0.000301464 0)
(-0.17732 -0.0286462 0)
(-0.178047 -0.0572506 0)
(-0.178411 -0.0859911 0)
(-0.178243 -0.114692 0)
(-0.177315 -0.143102 0)
(-0.175344 -0.170869 0)
(-0.172003 -0.197512 0)
(-0.166931 -0.222389 0)
(-0.159764 -0.244678 0)
(-0.150171 -0.26335 0)
(-0.137908 -0.277167 0)
(-0.122888 -0.284698 0)
(-0.10526 -0.284364 0)
(-0.0854981 -0.27453 0)
(-0.0644826 -0.25364 0)
(-0.0435143 -0.220402 0)
(-0.0242876 -0.17398 0)
(-0.00921698 -0.114193 0)
(-0.00154437 -0.0417407 0)
(-0.00142531 0.0423894 0)
(-0.00840475 0.114699 0)
(-0.0219406 0.173324 0)
(-0.0389447 0.218151 0)
(-0.0571819 0.24994 0)
(-0.0751696 0.26998 0)
(-0.0918387 0.279841 0)
(-0.106519 0.281169 0)
(-0.118894 0.275547 0)
(-0.128916 0.264402 0)
(-0.136724 0.248961 0)
(-0.142569 0.230243 0)
(-0.146768 0.209063 0)
(-0.149657 0.186057 0)
(-0.151567 0.161706 0)
(-0.152802 0.136358 0)
(-0.153632 0.110259 0)
(-0.15428 0.08357 0)
(-0.154924 0.0563931 0)
(-0.155688 0.0287859 0)
(-0.156642 0.000780752 0)
(-0.157801 -0.0275985 0)
(-0.159116 -0.056319 0)
(-0.16048 -0.0853193 0)
(-0.161713 -0.114488 0)
(-0.162569 -0.143637 0)
(-0.162729 -0.172474 0)
(-0.161808 -0.200567 0)
(-0.159363 -0.227306 0)
(-0.154919 -0.251865 0)
(-0.148003 -0.273169 0)
(-0.138201 -0.289863 0)
(-0.12524 -0.30032 0)
(-0.109089 -0.302666 0)
(-0.090077 -0.294875 0)
(-0.0690212 -0.274918 0)
(-0.0472795 -0.240996 0)
(-0.0267586 -0.191808 0)
(-0.0102983 -0.126843 0)
(-0.00176029 -0.0467159 0)
(-0.00164296 0.0469441 0)
(-0.0094727 0.126143 0)
(-0.024325 0.189202 0)
(-0.0424678 0.236163 0)
(-0.061252 0.268203 0)
(-0.0790153 0.28712 0)
(-0.0946629 0.294982 0)
(-0.107607 0.293863 0)
(-0.117678 0.285679 0)
(-0.124999 0.272088 0)
(-0.129877 0.25447 0)
(-0.132717 0.233924 0)
(-0.133963 0.211299 0)
(-0.134054 0.187227 0)
(-0.1334 0.162162 0)
(-0.132366 0.136416 0)
(-0.131266 0.110187 0)
(-0.130356 0.0835849 0)
(-0.129839 0.056658 0)
(-0.129858 0.0294084 0)
(-0.130502 0.00181079 0)
(-0.131796 -0.0261716 0)
(-0.133707 -0.0545701 0)
(-0.136131 -0.0833922 0)
(-0.138892 -0.1126 0)
(-0.141734 -0.142083 0)
(-0.144316 -0.171626 0)
(-0.146208 -0.200871 0)
(-0.146895 -0.22927 0)
(-0.145794 -0.256029 0)
(-0.142278 -0.280058 0)
(-0.135742 -0.299921 0)
(-0.125681 -0.313803 0)
(-0.111817 -0.319525 0)
(-0.0942572 -0.314609 0)
(-0.0736727 -0.296448 0)
(-0.0514203 -0.262574 0)
(-0.029612 -0.21103 0)
(-0.0115964 -0.140794 0)
(-0.00203024 -0.0523081 0)
(-0.00193659 0.0521299 0)
(-0.0108495 0.138884 0)
(-0.0272751 0.206394 0)
(-0.0466189 0.254993 0)
(-0.0657274 0.286489 0)
(-0.0827748 0.303393 0)
(-0.096708 0.308421 0)
(-0.107105 0.304169 0)
(-0.114021 0.292924 0)
(-0.117813 0.276587 0)
(-0.118998 0.256668 0)
(-0.118157 0.234319 0)
(-0.11587 0.210392 0)
(-0.112678 0.185488 0)
(-0.109062 0.160013 0)
(-0.105437 0.13422 0)
(-0.102148 0.108246 0)
(-0.0994773 0.0821414 0)
(-0.0976403 0.0558945 0)
(-0.096795 0.0294487 0)
(-0.0970407 0.00271911 0)
(-0.0984184 -0.0243924 0)
(-0.100907 -0.051983 0)
(-0.104419 -0.080132 0)
(-0.108791 -0.108881 0)
(-0.113775 -0.138208 0)
(-0.119025 -0.167994 0)
(-0.124086 -0.197979 0)
(-0.128392 -0.22771 0)
(-0.131264 -0.25647 0)
(-0.131929 -0.283206 0)
(-0.129571 -0.306446 0)
(-0.123414 -0.324232 0)
(-0.112861 -0.334082 0)
(-0.0976917 -0.333027 0)
(-0.0783138 -0.317763 0)
(-0.0559774 -0.284955 0)
(-0.0329563 -0.231721 0)
(-0.0131935 -0.156256 0)
(-0.00237907 -0.0586547 0)