/*--------------------------------*- C++ -*----------------------------------*\
| =========                 |                                                 |
| \\      /  F ield         | OpenFOAM: The Open Source CFD Toolbox           |
|  \\    /   O peration     | Version:  2.4.0                                 |
|   \\  /    A nd           | Web:      www.OpenFOAM.org                      |
|    \\/     M anipulation  |                                                 |
\*---------------------------------------------------------------------------*/
FoamFile
{
    version     2.0;
    format      ascii;
    class       surfaceScalarField;
    location    "0.2";
    object      phi;
}
// * * * * * * * * * * * * * * * * * * * * * * * * * * * * * * * * * * * * * //

dimensions      [0 3 -1 0 0 0 0];

internalField   nonuniform List<scalar> 
3731
(
2.02382e-48
-1.1907e-45
-6.38754e-47
3.84544e-47
-1.89856e-44
-1.01277e-45
6.88302e-46
-3.14271e-43
-1.63874e-44
1.0837e-44
-4.34886e-42
-2.26311e-43
1.78776e-43
-6.64328e-41
-3.35162e-42
2.42248e-42
-7.58954e-40
-3.85219e-41
3.69713e-41
-1.08754e-38
-5.26504e-40
4.04997e-40
-9.24588e-38
-4.59265e-39
5.80138e-39
-1.32457e-36
-6.02603e-38
4.26527e-38
-6.22828e-36
-3.07606e-37
-3.44056e-40
-2.42562e-42
-2.47172e-39
-2.44985e-41
-3.33311e-39
-5.42998e-40
-2.39545e-37
-4.98497e-40
-1.95733e-48
1.0685e-39
2.39545e-37
1.0685e-39
3.33311e-39
-4.98497e-40
2.47175e-39
-5.42998e-40
3.43543e-40
-2.45008e-41
1.49896e-41
-2.3944e-42
1.29754e-42
-1.02605e-43
5.2395e-44
-7.00254e-45
-5.23953e-44
-5.7357e-46
-1.29755e-42
-7.00257e-45
-1.49897e-41
-1.02606e-43
-3.43547e-40
-2.39441e-42
-2.4718e-39
-2.45011e-41
-3.33441e-39
-5.43005e-40
-2.3956e-37
-4.986e-40
-3.44845e-40
1.0661e-39
2.37059e-37
1.0439e-39
-3.44845e-40
-1.0439e-39
-2.3956e-37
-1.0661e-39
-3.33441e-39
4.986e-40
-2.4718e-39
5.43005e-40
-3.43547e-40
2.45011e-41
-1.49934e-41
2.3944e-42
-1.35388e-42
1.02318e-43
-1.35724e-42
-1.50581e-47
-1.50458e-41
-1.02589e-43
-3.44788e-40
-2.4011e-42
-2.48549e-39
-2.45967e-41
-3.66291e-39
-5.45296e-40
-2.41687e-37
-5.20699e-40
-1.19116e-39
5.47704e-40
1.19116e-39
1.0908e-39
2.41687e-37
5.47704e-40
3.66169e-39
-5.20706e-40
2.4778e-39
-5.45358e-40
-2.62005e-41
-2.79423e-41
2.39785e-42
-2.1779e-40
2.73606e-41
-4.05133e-39
5.99979e-40
-7.55467e-39
5.501e-40
-8.91459e-50
-1.18014e-39
7.55467e-39
-1.18014e-39
4.05133e-39
5.501e-40
2.17793e-40
5.99979e-40
2.79198e-41
2.73661e-41
1.38799e-42
2.58138e-42
1.16319e-43
1.10008e-43
5.06415e-45
7.35084e-45
-5.06418e-45
5.98348e-46
-1.1632e-43
7.35087e-45
-1.38801e-42
1.10008e-43
-2.79202e-41
2.58139e-42
-2.17798e-40
2.73664e-41
-4.05144e-39
5.99986e-40
-7.55607e-39
5.5021e-40
-2.80365e-41
-1.17756e-39
7.33549e-39
-1.15267e-39
-2.80365e-41
1.15267e-39
-7.55607e-39
1.17756e-39
-4.05144e-39
-5.5021e-40
-2.17798e-40
-5.99986e-40
-2.79202e-41
-2.73664e-41
-1.38836e-42
-2.58138e-42
-1.2176e-43
-1.09708e-43
-1.22079e-43
1.55187e-47
-1.39342e-42
1.09991e-43
-2.80311e-41
2.58841e-42
-2.1907e-40
2.74691e-41
-4.07797e-39
6.02457e-40
-7.74582e-39
5.74988e-40
-3.86018e-39
-6.05053e-40
3.86018e-39
-1.20513e-39
7.74582e-39
-6.05053e-40
4.07784e-39
5.74993e-40
2.18124e-40
6.02409e-40
2.27157e-41
-3.51282e-42
2.27578e-43
-1.49518e-41
2.62762e-42
-1.77523e-40
4.8838e-41
-3.23328e-40
4.40431e-41
-7.62109e-50
-9.57682e-41
3.23328e-40
-9.57682e-41
1.77523e-40
4.40431e-41
1.49517e-41
4.8838e-41
3.49884e-42
2.62816e-42
1.93199e-43
2.46718e-43
1.9012e-44
1.13971e-44
8.57434e-46
7.5784e-46
-8.5744e-46
6.48929e-47
-1.90122e-44
7.57843e-46
-1.93202e-43
1.13972e-44
-3.49891e-42
2.46719e-43
-1.49527e-41
2.6282e-42
-1.77542e-40
4.88388e-41
-3.23522e-40
4.40545e-41
-3.51792e-42
-9.55207e-41
3.08182e-40
-9.31286e-41
-3.51792e-42
9.31286e-41
-3.23522e-40
9.55207e-41
-1.77542e-40
-4.40545e-41
-1.49527e-41
-4.88388e-41
-3.49891e-42
-2.6282e-42
-1.93265e-43
-2.46718e-43
-1.99379e-44
-1.13646e-44
-1.99954e-44
1.67719e-48
-1.94122e-43
1.13954e-44
-3.517e-42
2.47441e-43
-1.51268e-41
2.63884e-42
-1.80847e-40
4.90741e-41
-3.34956e-40
4.64352e-41
-1.65895e-40
-4.93223e-41
1.65895e-40
-9.8171e-41
3.34956e-40
-4.93222e-41
1.80846e-40
4.64357e-41
1.5138e-41
4.9069e-41
2.17733e-42
-2.40042e-43
3.4842e-44
-7.52174e-43
3.54592e-43
-5.97039e-42
6.38122e-42
-1.05754e-41
5.7423e-42
-7.49585e-51
-1.25179e-41
1.05754e-41
-1.25179e-41
5.97039e-42
5.7423e-42
7.52151e-43
6.38122e-42
2.38809e-43
3.54713e-43
1.45203e-44
3.77783e-44
1.48735e-45
1.80157e-45
7.06163e-47
1.2674e-46
-7.06169e-47
1.10233e-47
-1.48736e-45
1.26741e-46
-1.45206e-44
1.80158e-45
-2.38814e-43
3.77786e-44
-7.52227e-43
3.54719e-43
-5.97188e-42
6.38134e-42
-1.059e-41
5.74411e-42
-2.40302e-43
-1.248e-41
9.80865e-42
-1.21614e-41
-2.40302e-43
1.21614e-41
-1.059e-41
1.248e-41
-5.97188e-42
-5.74411e-42
-7.52227e-43
-6.38134e-42
-2.38815e-43
-3.54719e-43
-1.45258e-44
-3.77783e-44
-1.5637e-45
-1.79604e-45
-1.56848e-45
2.91804e-49
-1.45964e-44
1.80126e-45
-2.40226e-43
3.78992e-44
-7.65255e-43
3.56393e-43
-6.19609e-42
6.41732e-42
-1.11018e-41
6.06092e-42
-5.44394e-42
-6.45534e-42
5.44394e-42
-1.28382e-41
1.11019e-41
-6.45534e-42
6.19647e-42
6.06093e-42
7.6911e-43
6.41603e-42
2.88449e-43
-2.12066e-44
2.76701e-45
-4.68616e-44
2.7348e-44
-1.43735e-43
4.57081e-43
-2.25274e-43
4.07965e-43
-1.03443e-51
-8.9558e-43
2.25274e-43
-8.9558e-43
1.43735e-43
4.07965e-43
4.68572e-44
4.57081e-43
2.10548e-44
2.7359e-44
1.33359e-45
3.01214e-45
1.45463e-46
1.51049e-46
7.02239e-48
1.07645e-47
-7.02244e-48
9.67397e-49
-1.45464e-46
1.07646e-47
-1.33361e-45
1.5105e-46
-2.10554e-44
3.01216e-45
-4.68647e-44
2.73595e-44
-1.43881e-43
4.57092e-43
-2.26615e-43
4.08116e-43
-2.12009e-44
-8.92557e-43
1.77076e-43
-8.68069e-43
-2.12009e-44
8.68069e-43
-2.26615e-43
8.92557e-43
-1.43881e-43
-4.08116e-43
-4.68647e-44
-4.57092e-43
-2.10554e-44
-2.73595e-44
-1.33415e-45
-3.01214e-45
-1.53071e-46
-1.50564e-46
-1.53559e-46
2.57214e-50
-1.34117e-45
1.51022e-46
-2.11933e-44
3.02239e-45
-4.80523e-44
2.74997e-44
-1.63595e-43
4.59953e-43
-2.52271e-43
4.32453e-43
-1.16737e-43
-4.62986e-43
1.16738e-43
-9.20208e-43
2.52276e-43
-4.62986e-43
1.63688e-43
4.32451e-43
4.88115e-44
4.59831e-43
2.20845e-44
-1.37857e-45
2.65646e-46
-2.62293e-45
2.4717e-45
-1.84545e-45
4.05911e-44
-8.94412e-46
3.61793e-44
-8.27673e-53
-7.95472e-44
8.9441e-46
-7.95472e-44
1.84541e-45
3.61793e-44
2.62254e-45
4.05911e-44
1.36726e-45
2.47317e-45
9.10504e-47
2.87792e-46
1.01529e-47
1.46794e-47
5.0544e-49
1.07139e-48
-5.05445e-49
9.71739e-50
-1.0153e-47
1.07139e-48
-9.10522e-47
1.46795e-47
-1.3673e-45
2.87795e-46
-2.62308e-45
2.47322e-45
-1.85561e-45
4.05922e-44
-9.86007e-46
3.61941e-44
-1.37745e-45
-7.92584e-44
-1.81972e-45
-7.70593e-44
-1.37745e-45
7.70593e-44
-9.86007e-46
7.92584e-44
-1.85561e-45
-3.61941e-44
-2.62308e-45
-4.05922e-44
-1.3673e-45
-2.47322e-45
-9.10914e-47
-2.87792e-46
-1.0701e-47
-1.46307e-47
-1.07364e-47
2.60695e-51
-9.15966e-47
1.46767e-47
-1.37691e-45
2.88812e-46
-2.70394e-45
2.48682e-45
-3.13127e-45
4.08653e-44
-2.23109e-45
3.83784e-44
-5.0873e-46
-4.11551e-44
5.08748e-46
-8.176e-44
2.23148e-45
-4.11552e-44
3.13939e-45
3.8378e-44
2.76674e-45
4.08513e-44
1.97344e-45
-1.00828e-46
7.11499e-47
-1.78084e-46
1.64918e-46
1.02113e-46
2.67764e-45
3.67452e-46
2.37499e-45
2.73934e-53
-5.24454e-45
-3.67452e-46
-5.24454e-45
-1.02109e-46
2.37501e-45
1.77987e-46
2.67798e-45
1.00058e-46
1.70204e-46
6.77555e-48
2.02036e-47
7.73912e-49
1.06254e-48
3.88974e-50
7.81607e-50
-3.88978e-50
7.23516e-51
-7.7392e-49
7.81611e-50
-6.7757e-48
1.06255e-48
-1.00061e-46
2.02038e-47
-1.78029e-46
1.70208e-46
1.01332e-46
2.67806e-45
3.60634e-46
2.37607e-45
-1.00835e-46
-5.22426e-45
-5.52257e-46
-5.07327e-45
-1.00835e-46
5.07327e-45
3.60634e-46
5.22426e-45
1.01332e-46
-2.37607e-45
-1.78029e-46
-2.67806e-45
-1.00061e-46
-1.70208e-46
-6.77874e-48
-2.02036e-47
-8.16122e-49
-1.05892e-48
-8.18871e-49
1.94491e-52
-6.81762e-48
1.06234e-48
-1.00793e-46
2.02779e-47
-1.84028e-46
1.71192e-46
8.0917e-48
2.69719e-45
2.83482e-46
2.526e-45
1.86079e-46
-2.71755e-45
-1.86077e-46
-5.39652e-45
-2.83445e-46
-2.71755e-45
-7.34159e-48
2.52596e-45
1.89627e-46
2.6961e-45
1.35225e-46
7.23388e-49
2.04971e-46
-1.06735e-47
-6.22078e-47
1.04413e-47
1.89567e-46
2.96679e-47
1.72117e-46
5.69624e-52
-3.81095e-46
-2.96592e-47
-3.81085e-46
-1.03035e-47
1.72363e-46
1.04807e-47
1.9459e-46
6.05614e-48
1.25221e-47
4.21861e-49
1.52169e-48
4.86261e-50
8.08656e-50
2.49127e-51
6.00359e-51
-2.49129e-51
5.58988e-52
-4.86266e-50
6.00362e-51
-4.2187e-49
8.08663e-50
-6.05634e-48
1.5217e-48
-1.04834e-47
1.25223e-47
1.02547e-47
1.94596e-46
2.92347e-47
1.72445e-46
-6.10497e-48
-3.79557e-46
-4.05644e-47
-3.68481e-46
-6.10497e-48
3.68481e-46
2.92347e-47
3.79557e-46
1.02547e-47
-1.72445e-46
-1.04834e-47
-1.94596e-46
-6.05635e-48
-1.25223e-47
-4.22065e-49
-1.52169e-48
-5.13304e-50
-8.05855e-50
-5.15068e-50
1.50545e-53
-4.24556e-49
8.08499e-50
-6.10229e-48
1.52739e-48
-1.08564e-47
1.25972e-47
4.62306e-48
1.96036e-46
2.4859e-47
1.83439e-46
1.51037e-47
-1.9757e-46
-1.51036e-47
-3.92235e-46
-2.48564e-47
-1.9757e-46
-4.57154e-48
1.83435e-46
1.12355e-47
1.95947e-46
9.89597e-48
3.65772e-46
1.79044e-44
-2.72714e-48
-1.50739e-45
3.99008e-48
-9.08018e-47
2.22433e-48
6.35236e-48
1.08048e-50
-2.32909e-47
-2.03905e-48
-2.31272e-47
-7.42197e-49
1.04269e-47
6.57515e-49
1.1812e-47
3.83672e-49
7.8089e-49
2.69931e-50
9.57042e-50
3.13845e-51
5.18546e-51
1.61834e-52
3.85892e-52
-1.61835e-52
3.6392e-53
-3.13848e-51
3.85894e-52
-2.69937e-50
5.1855e-51
-3.83685e-49
9.57052e-50
-6.57689e-49
7.80908e-49
7.39066e-49
1.18124e-47
2.01238e-48
1.04323e-47
-3.86824e-49
-2.30252e-47
-2.72423e-48
-2.23352e-47
-3.86824e-49
2.23352e-47
2.01238e-48
2.30252e-47
7.39066e-49
-1.04323e-47
-6.57689e-49
-1.18124e-47
-3.83685e-49
-7.80908e-49
-2.70064e-50
-9.57042e-50
-3.31416e-51
-5.16722e-51
-3.32564e-51
9.79101e-55
-2.71682e-50
5.18444e-51
-3.86649e-49
9.60708e-50
-6.81531e-49
7.85708e-49
3.82562e-49
1.19029e-47
1.74169e-48
1.11171e-47
1.04008e-48
-1.19993e-47
-1.04007e-48
-2.38162e-47
-1.7415e-48
-1.19993e-47
-3.7895e-49
1.11169e-47
7.07924e-49
1.18968e-47
6.16199e-49
1.69176e-44
-4.64954e-44
9.55122e-46
-2.90669e-45
5.76325e-47
-1.53458e-46
2.92126e-48
-5.13979e-48
1.25312e-49
-1.92892e-48
-1.10439e-49
-1.68928e-48
-4.24789e-50
7.56815e-49
3.64026e-50
8.5862e-49
2.13549e-50
5.7284e-50
1.53032e-51
7.07945e-51
1.7834e-52
3.86169e-52
9.31381e-54
2.87833e-53
-9.31389e-54
2.72389e-54
-1.78341e-52
2.87835e-53
-1.53034e-51
3.86172e-52
-2.13553e-50
7.07954e-51
-3.64049e-50
5.72858e-50
4.25051e-50
8.58659e-49
1.1424e-49
7.57531e-49
-2.15337e-50
-1.67345e-48
-1.53716e-49
-1.62288e-48
-2.15337e-50
1.62288e-48
1.1424e-49
1.67345e-48
4.25051e-50
-7.57531e-49
-3.64049e-50
-8.58659e-49
-2.13554e-50
-5.72858e-50
-1.53107e-51
-7.07946e-51
-1.88452e-52
-3.84804e-52
-1.89111e-52
7.31281e-56
-1.54038e-51
3.86093e-52
-2.15237e-50
7.10681e-51
-3.77561e-50
5.76431e-50
2.26909e-50
8.65351e-49
9.9379e-50
8.07707e-49
5.90857e-50
-8.72487e-49
-5.9085e-50
-1.73148e-48
-9.93678e-50
-8.72488e-49
-2.24757e-50
8.07682e-49
3.93275e-50
8.64881e-49
4.51272e-50
1.10734e-36
-3.35528e-36
-7.42036e-36
1.13156e-36
2.5851e-38
-8.02247e-34
-6.27169e-36
-7.6883e-38
1.11672e-35
8.96136e-34
8.86596e-36
-2.15916e-36
2.84363e-37
4.99066e-36
8.35522e-36
1.883e-37
1.23814e-36
9.70521e-36
4.93657e-37
1.26774e-36
-4.03293e-38
1.65656e-35
8.40733e-37
-4.17617e-38
-2.03195e-36
3.38067e-35
1.39217e-35
-2.0853e-36
-3.95506e-36
1.39135e-33
3.92968e-35
-4.05677e-36
-1.26588e-37
1.4826e-33
4.01083e-35
-1.29819e-37
3.9502e-36
1.47642e-35
4.05174e-36
8.19904e-37
2.21965e-36
1.05778e-37
9.85787e-38
5.12587e-39
8.72968e-39
4.83518e-40
3.5536e-40
1.00236e-39
1.95555e-41
2.43376e-38
-7.84675e-41
2.86023e-37
-1.21994e-39
6.97503e-36
-3.08068e-38
5.02435e-35
-3.32104e-37
7.31409e-35
-7.8931e-36
5.14297e-33
-7.59066e-36
7.31408e-35
7.59066e-36
5.02433e-35
7.8931e-36
6.97277e-36
3.31906e-37
2.32239e-37
1.70733e-38
-2.73862e-38
-7.01217e-37
5.27063e-38
-4.6898e-35
5.38457e-38
-7.02434e-37
2.26538e-39
-1.37333e-38
2.1008e-40
-1.97813e-40
8.57322e-42
9.64963e-44
4.99493e-42
1.09529e-41
9.23969e-41
6.17902e-38
-2.01028e-37
6.43378e-39
-4.86724e-39
3.27376e-40
-1.48955e-40
-4.99728e-42
2.5058e-41
-3.45008e-39
-1.68134e-37
-2.88742e-41
-3.90043e-39
7.78298e-42
-1.08281e-40
-3.38422e-42
1.99938e-42
4.14318e-38
2.34346e-37
1.20669e-38
5.29576e-39
7.0092e-40
1.25901e-40
3.3079e-42
8.26446e-41
1.15778e-38
2.2415e-37
1.52004e-39
5.16335e-39
8.81994e-41
1.31755e-40
3.76599e-42
8.12419e-42
7.15479e-38
2.55403e-38
7.3927e-39
1.02014e-39
3.81468e-40
6.25308e-41
2.86875e-42
2.91089e-41
-2.75065e-39
4.64502e-38
-2.98741e-40
1.91012e-39
-1.66728e-41
1.19356e-40
5.46123e-42
-1.29081e-42
-1.19058e-37
3.75879e-37
-1.22351e-38
8.67406e-39
-6.33725e-40
1.83639e-40
3.88019e-42
-4.80228e-41
-2.29428e-37
1.00315e-36
-2.3554e-38
2.12445e-38
-1.21372e-39
2.78224e-40
-4.45345e-43
-9.19309e-41
-7.31713e-39
1.02311e-36
-7.50989e-40
2.16423e-38
-3.86269e-41
2.81068e-40
-5.90394e-43
-2.92533e-42
2.29099e-37
3.96583e-37
2.35201e-38
9.08123e-39
1.21185e-39
1.85788e-40
3.68348e-42
9.17893e-41
1.26677e-37
4.23599e-38
1.30222e-38
1.68066e-39
6.74411e-40
1.01091e-40
4.56955e-42
5.11152e-41
6.48741e-39
9.84216e-39
6.89489e-40
4.90353e-40
3.83725e-41
3.58264e-41
1.71642e-42
2.95378e-42
5.83193e-40
5.26927e-40
6.94907e-41
2.86759e-41
3.97287e-42
2.16063e-42
1.08519e-43
3.21115e-43
2.53657e-41
5.38352e-41
3.11478e-42
3.33413e-42
1.85816e-43
2.54145e-43
1.39292e-44
1.52279e-44
-1.45371e-42
6.56964e-41
-3.10324e-44
8.21532e-42
-1.80346e-44
4.90208e-43
3.86862e-44
-9.52773e-46
-8.07403e-41
1.45789e-39
-6.01325e-42
1.79951e-40
-7.58917e-43
1.01584e-41
7.97529e-43
-4.81775e-44
-1.24181e-39
1.7082e-38
-9.19945e-41
1.81841e-39
-1.10334e-41
9.92706e-41
7.36638e-42
-6.93917e-43
-3.11898e-38
3.64977e-37
-2.14202e-39
3.54481e-38
-2.50469e-40
1.76922e-39
1.27664e-40
-1.50106e-41
-3.35799e-37
2.60807e-36
-2.26586e-38
1.29053e-37
-2.35156e-39
4.77553e-39
2.61458e-40
-1.37091e-40
-7.909e-36
5.06892e-35
-4.6019e-37
1.43268e-36
-4.66085e-38
3.11117e-38
4.80911e-40
-2.52791e-39
-7.60323e-36
9.68608e-35
-4.39587e-37
2.67485e-36
-4.44971e-38
5.60317e-38
6.81031e-40
-2.40518e-39
7.60323e-36
5.06892e-35
4.39587e-37
1.43268e-36
4.4497e-38
3.11123e-38
4.8099e-40
2.40518e-39
7.909e-36
2.60828e-36
4.60188e-37
1.29275e-37
4.66076e-38
4.79077e-39
2.63246e-40
2.52784e-39
3.35682e-37
3.67239e-37
2.26285e-38
3.78408e-38
2.33901e-39
1.93061e-39
1.44453e-40
1.36106e-40
2.36071e-38
7.08408e-38
1.09389e-39
5.82426e-38
-8.10694e-41
3.3786e-39
3.40285e-40
-8.71247e-42
-3.71455e-37
5.31568e-38
-2.59569e-38
5.44251e-38
-3.85978e-39
3.14272e-39
3.18648e-40
-2.47598e-40
-9.05881e-37
-5.16356e-38
-6.33687e-37
-5.4237e-38
-9.29154e-38
-3.13207e-39
-3.1768e-40
-5.25534e-39
-3.72694e-37
-5.37548e-38
-2.60487e-38
-5.64236e-38
-3.87066e-39
-3.2789e-39
-3.29786e-40
-2.48079e-40
-7.58253e-39
-2.26159e-39
-1.04794e-39
-2.39237e-39
-3.29228e-40
-1.55576e-40
3.07908e-41
-1.96725e-41
-1.16443e-40
-2.09202e-40
-2.54506e-41
-2.14491e-40
4.89375e-41
1.16684e-40
1.1032e-39
1.13187e-40
6.96381e-42
-3.3003e-42
6.77741e-41
5.90292e-41
9.36519e-40
1.23159e-39
1.15825e-38
2.18245e-39
1.85035e-40
9.07594e-41
1.66291e-39
1.24964e-39
2.46988e-38
2.44478e-38
2.34825e-37
7.47871e-38
1.63379e-39
1.71026e-38
2.84723e-37
1.80684e-36
1.0624e-42
-2.89285e-43
5.71357e-44
-9.98024e-45
2.26152e-45
-5.33538e-46
1.04009e-46
-2.14078e-47
3.8434e-48
-1.08306e-48
1.48675e-49
-9.65241e-50
2.73907e-51
2.44359e-50
2.4179e-51
2.95401e-50
1.31194e-51
2.0071e-51
9.40942e-53
2.51094e-52
1.09456e-53
1.38864e-53
5.72372e-55
1.04069e-54
-5.72178e-55
9.94275e-56
-1.09394e-53
1.04077e-54
-9.38865e-53
1.38888e-53
-1.30566e-51
2.51164e-52
-2.22262e-51
2.00923e-51
2.6263e-51
2.95973e-50
7.03138e-51
2.60555e-50
-1.3166e-51
-5.76609e-50
-9.44239e-51
-5.589e-50
-1.3166e-51
5.589e-50
7.03138e-51
5.76609e-50
2.6263e-51
-2.60555e-50
-2.22262e-51
-2.95973e-50
-1.30566e-51
-2.00923e-51
-9.39313e-53
-2.51162e-52
-1.15603e-53
-1.38388e-53
-1.16006e-53
2.67319e-57
-9.45032e-53
1.38859e-53
-1.31599e-51
2.5215e-52
-2.30552e-51
2.02208e-51
1.41519e-51
2.98346e-50
6.12598e-51
2.78124e-50
3.6372e-51
-3.00878e-50
-3.63715e-51
-5.9697e-50
-6.12524e-51
-3.00878e-50
-1.40102e-51
2.78115e-50
2.4106e-51
2.98172e-50
1.57802e-51
1.21909e-43
-2.15908e-43
9.89905e-45
-8.95283e-45
4.86814e-46
-5.08113e-46
2.86064e-47
-2.05854e-47
1.23682e-48
-9.86854e-49
5.9409e-50
-3.92153e-50
2.24913e-51
-5.51366e-52
1.67594e-52
1.06733e-51
4.49037e-53
7.44696e-53
3.14496e-54
9.43482e-54
3.56825e-55
5.23932e-55
1.87464e-56
3.9031e-56
-1.8598e-56
3.72794e-57
-3.5254e-55
3.90967e-56
-3.01561e-54
5.26096e-55
-4.14163e-53
9.4994e-54
-7.03423e-53
7.64551e-53
8.34936e-53
1.12102e-51
2.23058e-52
9.8613e-52
-4.17689e-53
-2.18356e-51
-2.99452e-52
-2.11612e-51
-4.17689e-53
2.11612e-51
2.23058e-52
2.18356e-51
8.34936e-53
-9.8613e-52
-7.03423e-53
-1.12102e-51
-4.14163e-53
-7.64551e-53
-3.01706e-54
-9.49929e-54
-3.72727e-55
-5.24222e-55
-3.74038e-55
9.93639e-59
-3.03566e-54
5.25987e-55
-4.17488e-53
9.53642e-54
-7.30038e-53
7.69421e-53
4.51144e-53
1.12999e-51
1.94505e-52
1.05305e-51
1.15437e-52
-1.13956e-51
-1.15435e-52
-2.26103e-51
-1.9448e-52
-1.13957e-51
-4.46406e-53
1.05301e-51
7.65089e-53
1.12931e-51
6.01931e-53
3.91698e-42
1.89447e-43
2.73629e-43
7.77567e-45
1.19834e-44
4.52714e-46
6.62235e-46
1.85573e-47
2.67861e-47
9.02882e-49
1.24992e-48
3.41634e-50
4.68027e-50
1.46801e-51
1.91402e-51
8.66676e-53
6.78782e-53
4.38154e-54
2.53255e-54
3.72523e-55
9.06176e-56
1.94534e-56
3.24329e-57
1.35241e-57
-5.50255e-58
1.25599e-58
-1.19201e-56
1.28964e-57
-1.0261e-55
1.73905e-56
-1.40675e-54
3.11223e-55
-2.38788e-54
2.50393e-54
2.83712e-54
3.62336e-53
7.57556e-54
3.18159e-53
-1.41868e-54
-7.0552e-53
-1.01693e-53
-6.83432e-53
-1.41868e-54
6.83432e-53
7.57556e-54
7.0552e-53
2.83712e-54
-3.18159e-53
-2.38788e-54
-3.62336e-53
-1.40676e-54
-2.50393e-54
-1.02659e-55
-3.1122e-55
-1.26049e-56
-1.73283e-56
-1.26489e-56
3.2818e-60
-1.03288e-55
1.73869e-56
-1.418e-54
3.12444e-55
-2.47852e-54
2.52003e-54
1.53371e-54
3.65273e-53
6.60704e-54
3.40072e-53
3.92091e-54
-3.68411e-53
-3.92086e-54
-7.30895e-53
-6.60617e-54
-3.68411e-53
-1.51722e-54
3.40058e-53
2.60232e-54
3.65042e-53
1.97212e-54
3.80416e-43
2.24012e-43
2.36421e-44
9.22559e-45
1.02631e-45
5.25088e-46
5.31193e-47
2.13648e-47
2.13524e-48
1.02499e-48
9.56438e-50
3.86543e-50
3.56525e-51
1.60891e-51
1.41769e-52
5.74798e-53
4.95277e-54
2.16752e-54
1.79255e-55
7.83134e-56
6.05121e-57
2.86065e-57
2.0566e-58
1.12295e-58
-1.36239e-59
6.2601e-60
-3.62342e-58
4.33126e-59
-3.13032e-57
5.88448e-58
-4.25177e-56
1.05265e-56
-7.20401e-56
8.53414e-56
8.57605e-56
1.23114e-54
2.28701e-55
1.08042e-54
-4.28803e-56
-2.39685e-54
-3.07022e-55
-2.32149e-54
-4.28803e-56
2.32149e-54
2.28701e-55
2.39685e-54
8.57605e-56
-1.08042e-54
-7.20401e-56
-1.23114e-54
-4.25178e-56
-8.53414e-56
-3.13181e-57
-1.05264e-56
-3.8338e-58
-5.86367e-58
-3.84718e-58
1.08849e-61
-3.15105e-57
5.88327e-58
-4.28596e-56
1.05675e-56
-7.48063e-56
8.58865e-56
4.63953e-56
1.24108e-54
1.99562e-55
1.15519e-54
1.18415e-55
-1.25169e-54
-1.18413e-55
-2.48333e-54
-1.99534e-55
-1.25169e-54
-4.5885e-56
1.15514e-54
7.86654e-56
1.24027e-54
6.73962e-56
1.22648e-42
1.76322e-43
6.56541e-44
6.91718e-45
2.59229e-45
3.2303e-46
1.18854e-46
1.19959e-47
4.38411e-48
4.94118e-49
1.77289e-49
1.71867e-50
6.10822e-51
6.35691e-52
2.22113e-52
2.07456e-53
7.15711e-54
7.00085e-55
2.37239e-55
2.16291e-56
7.16701e-57
6.78308e-58
2.18834e-58
2.02643e-59
5.58575e-60
6.70629e-61
-1.10004e-59
1.33157e-60
-9.72652e-59
1.80169e-59
-1.31976e-57
3.20328e-58
-2.23506e-57
2.60865e-57
2.66192e-57
3.72494e-56
7.09617e-57
3.26393e-56
-1.33094e-57
-7.2496e-56
-9.52641e-57
-7.0191e-56
-1.33094e-57
7.0191e-56
7.09617e-57
7.2496e-56
2.66192e-57
-3.26393e-56
-2.23506e-57
-3.72494e-56
-1.31977e-57
-2.60865e-57
-9.73152e-59
-3.20324e-58
-1.18178e-59
-1.79531e-59
-1.18586e-59
3.30218e-63
-9.79082e-59
1.80129e-59
-1.3303e-57
3.21574e-58
-2.32111e-57
2.62535e-57
1.44011e-57
3.75517e-56
6.19269e-57
3.49263e-56
3.67453e-57
-3.78746e-56
-3.67448e-57
-7.51395e-56
-6.19182e-57
-3.78747e-56
-1.42411e-57
3.49247e-56
2.44399e-57
3.75267e-56
2.06383e-57
-5.68237e-44
3.30798e-43
-3.0329e-45
1.28114e-44
-1.22546e-46
5.87199e-46
-5.5646e-48
2.14867e-47
-2.07481e-49
8.6843e-49
-8.28036e-51
2.97329e-50
-2.86023e-52
1.07885e-51
-1.02424e-53
3.45638e-53
-3.28873e-55
1.1418e-54
-1.07161e-56
3.42792e-56
-3.20676e-58
1.04161e-57
-9.59958e-60
2.93633e-59
-2.86182e-61
8.29196e-61
-3.24398e-61
6.19654e-62
-2.77628e-60
5.54629e-61
-3.74082e-59
9.85285e-60
-6.32573e-59
8.09551e-59
7.54517e-59
1.15326e-57
2.00931e-58
1.01002e-57
-3.77252e-59
-2.24419e-57
-2.69758e-58
-2.17258e-57
-3.77252e-59
2.17258e-57
2.00931e-58
2.24419e-57
7.54517e-59
-1.01002e-57
-6.32573e-59
-1.15326e-57
-3.74083e-59
-8.09551e-59
-2.77737e-60
-9.85273e-60
-3.35213e-61
-5.52127e-61
-3.36367e-61
9.93952e-65
-2.79425e-60
5.53947e-61
-3.7707e-59
9.89081e-60
-6.57151e-59
8.14691e-59
4.0839e-59
1.16255e-57
1.75417e-58
1.08108e-57
1.04078e-58
-1.17248e-57
-1.04076e-58
-2.32622e-57
-1.75392e-58
-1.17249e-57
-4.03796e-59
1.08103e-57
6.92828e-59
1.16177e-57
6.42347e-59
-2.02356e-42
1.21033e-43
-1.0752e-43
3.75644e-45
-4.23751e-45
1.60116e-46
-1.92829e-46
5.75419e-48
-7.09027e-48
2.31419e-49
-2.84583e-49
7.89329e-51
-9.76435e-51
2.85953e-52
-3.52429e-52
9.13618e-54
-1.12991e-53
3.01365e-55
-3.717e-55
9.02455e-57
-1.11553e-56
2.73768e-58
-3.37733e-58
7.69547e-60
-9.50648e-60
2.16367e-61
-2.75764e-61
6.84735e-63
-8.64075e-62
1.59233e-62
-1.0688e-60
2.79377e-61
-1.80623e-60
2.31258e-60
2.15522e-60
3.26813e-59
5.73762e-60
2.85856e-59
-1.07759e-60
-6.35782e-59
-7.70305e-60
-6.15304e-59
-1.07759e-60
6.15304e-59
5.73762e-60
6.35782e-59
2.15522e-60
-2.85856e-59
-1.80622e-60
-3.26813e-59
-1.06862e-60
-2.31258e-60
-7.93883e-62
-2.79371e-61
-9.49442e-63
-1.57191e-62
-9.52677e-63
2.78815e-66
-7.98662e-62
1.57706e-62
-1.07708e-60
2.80447e-61
-1.87656e-60
2.32722e-60
1.16651e-60
3.29448e-59
5.0095e-60
3.06176e-59
2.97222e-60
-3.32264e-59
-2.97217e-60
-6.59213e-59
-5.00878e-60
-3.32265e-59
-1.15334e-60
3.06162e-59
1.98046e-60
3.29222e-59
1.83969e-60
-3.86085e-42
-3.57686e-43
-2.05087e-43
-1.64978e-44
-8.06351e-45
-7.89257e-46
-3.66853e-46
-2.90955e-47
-1.3465e-47
-1.17658e-48
-5.40337e-49
-4.02574e-50
-1.85141e-50
-1.45871e-51
-6.681e-52
-4.668e-53
-2.13965e-53
-1.53972e-54
-7.03723e-55
-4.61592e-56
-2.11016e-56
-1.40016e-57
-6.38721e-58
-3.93865e-59
-1.7965e-59
-1.10693e-60
-5.04316e-61
-2.92334e-62
-1.54434e-62
-3.20603e-64
-2.87658e-62
7.88082e-63
-4.79818e-62
6.60545e-62
5.73114e-62
9.31664e-61
1.52444e-61
8.14524e-61
-2.86554e-62
-1.81221e-60
-2.04672e-61
-1.75364e-60
-2.86554e-62
1.75364e-60
1.52444e-61
1.81221e-60
5.73117e-62
-8.14524e-61
-4.79731e-62
-9.31664e-61
-2.84174e-62
-6.6055e-62
-2.12177e-63
-7.89981e-63
-2.51691e-64
-4.44213e-64
-2.52543e-64
7.64941e-68
-2.13447e-63
4.4565e-64
-2.86417e-62
7.92991e-63
-4.98549e-62
6.6469e-62
3.10297e-62
9.39116e-61
1.3314e-61
8.72646e-61
7.89892e-62
-9.47078e-61
-7.89879e-62
-1.87913e-60
-1.3312e-61
-9.4708e-61
-3.06775e-62
8.72605e-61
5.26721e-62
9.38469e-61
5.27138e-62
-1.2271e-43
-3.7336e-43
-6.51772e-45
-1.71593e-44
-2.56039e-46
-8.20245e-46
-1.16477e-47
-3.02329e-47
-4.27239e-49
-1.22253e-48
-1.71433e-50
-4.18286e-50
-5.87098e-52
-1.51563e-51
-2.11843e-53
-4.85009e-53
-6.78171e-55
-1.59977e-54
-2.23028e-56
-4.79587e-56
-6.68542e-58
-1.45473e-57
-2.02342e-59
-4.0921e-59
-5.68964e-61
-1.15004e-60
-1.59692e-62
-3.04037e-62
-4.77989e-64
-7.84327e-64
-7.63692e-64
1.89508e-64
-1.27035e-63
1.76632e-63
1.51783e-63
2.47629e-62
4.03607e-63
2.16259e-62
-7.58905e-64
-4.81547e-62
-5.41888e-63
-4.65862e-62
-7.58905e-64
4.65862e-62
4.03607e-63
4.81547e-62
1.51783e-63
-2.16259e-62
-1.27008e-63
-2.47629e-62
-7.52663e-64
-1.76681e-63
-5.6216e-65
-2.09319e-64
-6.60113e-66
-1.17781e-65
-6.62318e-66
-1.91878e-68
-5.65488e-65
1.18356e-65
-7.58547e-64
2.10111e-64
-1.32e-63
1.77781e-63
8.21745e-64
2.49603e-62
3.52525e-63
2.31825e-62
2.09146e-63
-2.51713e-62
-2.09143e-63
-4.99444e-62
-3.52474e-63
-2.51713e-62
-8.12427e-64
2.31814e-62
1.39577e-63
2.49429e-62
1.41425e-63
3.85466e-42
1.01745e-43
2.04758e-43
2.94625e-45
8.0502e-45
1.22215e-46
3.66246e-46
4.35697e-48
1.34423e-47
1.74894e-49
5.39421e-49
5.95258e-51
1.84822e-50
2.15533e-52
6.66946e-52
6.87577e-54
2.13591e-53
2.26699e-55
7.02488e-55
6.77999e-57
2.10641e-56
2.05579e-58
6.37584e-58
5.77211e-60
1.79327e-59
1.62159e-61
5.03169e-61
4.28086e-63
1.32969e-62
1.12366e-64
3.28978e-64
8.26275e-66
-2.30512e-65
4.67849e-65
3.81357e-65
6.54778e-64
1.00775e-64
5.71727e-64
-1.89616e-65
-1.2731e-63
-1.35299e-64
-1.23158e-63
-1.8961e-65
1.23161e-63
1.0077e-64
1.27412e-63
3.79232e-65
-5.71496e-64
-3.17025e-65
-6.54765e-64
-1.8806e-65
-4.68334e-65
-1.40975e-66
-5.46891e-66
-1.65061e-67
5.92498e-67
-1.6453e-67
-9.04674e-67
-1.41746e-66
2.51961e-67
-1.89526e-65
5.49691e-66
-3.29558e-65
4.70948e-65
2.05358e-65
6.60075e-64
8.80384e-65
6.12999e-64
5.223e-65
-6.65622e-64
-5.22279e-65
-1.32058e-63
-8.80262e-65
-6.64514e-64
-2.0304e-65
6.12806e-64
3.48801e-65
6.59479e-64
3.67745e-65
2.15376e-42
2.75e-43
1.14447e-43
1.06266e-44
4.51028e-45
4.86176e-46
2.05249e-46
1.77676e-47
7.54652e-48
7.17039e-49
3.02898e-49
2.4519e-50
1.03922e-50
8.88359e-52
3.75086e-52
2.84233e-53
1.20248e-53
9.37533e-55
3.95565e-55
2.81032e-56
1.18709e-56
8.52478e-58
3.59385e-58
2.39786e-59
1.01149e-59
6.73917e-61
2.83863e-61
1.78164e-62
7.50628e-63
4.66533e-64
1.95879e-64
1.14935e-65
4.10803e-66
-2.15384e-66
1.06412e-66
1.47389e-65
2.4906e-66
1.9658e-65
-4.72367e-67
-2.78995e-65
-3.31794e-66
-3.02667e-65
-4.4282e-67
3.15394e-65
2.46697e-66
6.91315e-65
9.10492e-67
-9.87726e-66
-7.86703e-67
-1.4272e-65
-4.41492e-67
-2.60586e-66
-3.45587e-68
3.10095e-67
-5.17632e-68
3.6315e-65
-5.58678e-69
-3.64718e-65
-1.06037e-68
-2.3104e-66
-4.64056e-67
-1.38461e-67
-8.08887e-67
1.44087e-66
5.04628e-67
2.02815e-65
2.16664e-66
1.97128e-65
1.31535e-66
-2.13699e-65
-1.26332e-66
-3.23476e-65
-2.20149e-66
2.37131e-65
-5.47133e-67
1.24696e-65
8.84677e-67
1.45577e-65
-3.16391e-65
1.30065e-43
1.05748e-43
6.96072e-45
4.1223e-45
2.82398e-46
1.88936e-46
1.29021e-47
6.9264e-48
4.84077e-49
2.79622e-49
1.94766e-50
9.5822e-51
6.78011e-52
3.47259e-52
2.45098e-53
1.11287e-53
7.94153e-55
3.67158e-55
2.61521e-56
1.10197e-56
7.91e-58
3.34338e-58
2.39651e-59
9.41356e-60
6.78412e-61
2.64621e-61
1.9049e-62
7.00115e-63
5.05775e-64
1.82113e-64
1.31016e-65
-6.16393e-66
5.04656e-67
-1.53925e-64
3.958e-67
-6.86852e-65
7.37467e-68
2.30557e-64
-2.07763e-67
1.64813e-64
8.42708e-67
1.86581e-65
1.07362e-66
2.75601e-65
-8.05133e-67
1.49769e-63
-1.08249e-66
1.79237e-64
-2.06466e-67
8.75074e-65
9.6353e-67
-6.18147e-65
1.56033e-68
1.24429e-65
-2.03443e-66
1.46063e-63
-6.62816e-68
-1.46696e-63
1.04094e-66
-9.22573e-65
1.61263e-67
-1.10329e-65
1.88973e-67
1.10462e-65
-9.82105e-68
1.62331e-64
-2.54962e-67
1.86353e-64
1.14037e-66
-2.04084e-64
1.08335e-66
1.86316e-65
-1.27182e-66
1.62393e-63
-1.95613e-66
-1.26965e-64
1.00588e-66
-7.56626e-65
-1.30258e-63
1.43902e-44
6.75109e-45
7.83949e-46
2.71079e-46
3.19794e-47
1.24723e-47
1.46989e-48
4.66454e-49
5.51283e-50
1.88648e-50
2.21745e-51
6.55536e-52
7.68915e-53
2.37739e-53
2.76811e-54
7.69407e-55
8.91277e-56
2.53865e-56
2.91537e-57
7.67201e-58
8.74721e-59
2.32696e-59
2.62752e-60
6.58286e-61
7.36843e-62
1.84936e-62
2.04811e-63
4.87965e-64
4.9674e-65
-3.85193e-65
-3.96942e-66
-4.30856e-64
8.31638e-66
-6.19977e-63
1.57275e-65
-2.7809e-63
6.29337e-67
9.26456e-63
-8.68412e-66
6.66138e-63
3.65367e-65
7.50385e-64
4.37681e-65
7.82069e-64
-3.42628e-65
5.59515e-62
-4.44408e-65
6.92964e-63
-8.06829e-66
3.50515e-63
3.9072e-65
-2.51771e-63
9.10121e-67
2.34637e-64
-8.17362e-65
5.47895e-62
-2.6435e-66
-5.50444e-62
4.19461e-65
-3.4463e-63
7.20456e-66
-4.14253e-64
8.91828e-66
4.44497e-64
-4.76647e-66
6.51457e-63
-1.33758e-65
7.48197e-63
4.46736e-65
-8.22976e-63
4.50378e-65
4.85473e-64
-4.94403e-65
6.10835e-62
-7.77457e-65
-5.39558e-63
3.97872e-65
-2.84791e-63
-4.84952e-62
7.01307e-46
8.58672e-46
3.84305e-47
3.68225e-47
1.59524e-48
1.66841e-48
7.35399e-50
6.53066e-50
2.79055e-51
2.60354e-51
1.12399e-52
9.33885e-53
3.92851e-54
3.34514e-54
1.41479e-55
1.1062e-55
4.57942e-57
3.61094e-57
1.49742e-58
1.10646e-58
4.50776e-60
3.32347e-60
1.35287e-61
9.47469e-62
3.79938e-63
2.62797e-63
9.2611e-65
-4.54149e-65
-1.74295e-64
-2.07236e-63
-2.28667e-64
-1.7201e-62
3.53039e-64
-2.49132e-61
6.70475e-64
-1.11844e-61
2.58684e-65
3.72329e-61
-3.78868e-64
2.6749e-61
1.44772e-63
2.89708e-62
1.76374e-63
2.07127e-62
-1.35854e-63
2.1092e-60
-1.78535e-63
2.67735e-61
-3.43192e-64
1.3969e-61
1.5652e-63
-1.02336e-61
4.67572e-65
-1.70613e-64
-3.28023e-63
2.07335e-60
-1.04858e-64
-2.08354e-60
1.68677e-63
-1.28861e-61
2.9905e-64
-1.55763e-62
3.76801e-64
1.77731e-62
-2.06582e-64
2.61418e-61
-5.76553e-64
2.96429e-61
1.79745e-63
-3.32303e-61
1.81896e-63
8.81313e-63
-1.99854e-63
2.3158e-60
-3.10529e-63
-2.2673e-61
1.60465e-63
-1.06669e-61
-1.82246e-60
-9.32399e-47
2.08229e-45
-4.08746e-48
1.13495e-46
-2.60051e-49
4.73823e-48
-1.06225e-50
2.18271e-49
-5.29415e-52
8.32042e-51
-1.99842e-53
3.35106e-52
-8.40089e-55
1.17518e-53
-2.93035e-56
4.23303e-55
-1.07995e-57
1.37312e-56
-3.48872e-59
4.4897e-58
-1.15339e-60
1.35112e-59
-3.45961e-62
4.04598e-61
-1.09936e-63
1.09788e-62
-5.47709e-64
-4.06345e-63
-7.11521e-63
-7.84146e-62
-9.19299e-63
-6.43013e-61
1.41868e-62
-9.32803e-60
2.6943e-62
-4.1885e-60
1.00321e-63
1.39419e-59
-1.55785e-62
1.00119e-59
5.32399e-62
1.03891e-60
6.62575e-62
3.62173e-61
-4.99772e-62
7.28927e-59
-6.68405e-62
9.61023e-60
-1.37569e-62
5.18218e-60
5.83493e-62
-3.87813e-60
2.20137e-63
-3.74807e-61
-1.22582e-61
7.19656e-59
-3.89296e-63
-7.23473e-59
6.31994e-62
-4.4564e-60
1.16968e-62
-5.39026e-61
1.51074e-62
6.6739e-61
-8.33773e-63
9.78745e-60
-2.35266e-62
1.11217e-59
6.72974e-62
-1.24903e-59
6.85121e-62
-8.38591e-62
-7.54054e-62
8.06336e-59
-1.1537e-61
-8.86482e-60
6.03089e-62
-3.70494e-60
-6.26697e-59
-3.39418e-45
4.15265e-44
-1.58688e-46
2.26115e-45
-8.68801e-48
9.23566e-47
-3.63508e-49
4.25626e-48
-1.66873e-50
1.59866e-49
-6.34599e-52
6.44472e-51