/*--------------------------------*- C++ -*----------------------------------*\
| =========                 |                                                 |
| \\      /  F ield         | OpenFOAM: The Open Source CFD Toolbox           |
|  \\    /   O peration     | Version:  2.4.0                                 |
|   \\  /    A nd           | Web:      www.OpenFOAM.org                      |
|    \\/     M anipulation  |                                                 |
\*---------------------------------------------------------------------------*/
FoamFile
{
    version     2.0;
    format      ascii;
    class       volVectorField;
    location    "0.2";
    object      U;
}
// * * * * * * * * * * * * * * * * * * * * * * * * * * * * * * * * * * * * * //

dimensions      [0 1 -1 0 0 0 0];

internalField   nonuniform List<vector> 
1915
(
(1.40669e-45 -1.36371e-42 0)
(5.6352e-44 -7.43203e-44 0)
(1.13987e-44 -2.43317e-41 0)
(1.08607e-42 -1.30411e-42 0)
(1.8812e-43 -3.85378e-40 0)
(1.94556e-41 -2.05514e-41 0)
(2.66978e-42 -6.39661e-39 0)
(3.06611e-40 -3.33088e-40 0)
(3.83968e-41 -8.7452e-38 0)
(5.06378e-39 -4.55072e-39 0)
(4.11165e-40 -1.34617e-36 0)
(6.8725e-38 -6.77774e-38 0)
(4.58861e-39 -1.50321e-35 0)
(1.05055e-36 -7.63527e-37 0)
(1.93126e-38 -2.1966e-34 0)
(1.15391e-35 -1.05985e-35 0)
(9.00016e-39 -1.7756e-33 0)
(1.65559e-34 -8.85112e-35 0)
(-3.02039e-36 -2.68087e-32 0)
(1.2203e-33 -1.21191e-33 0)
(-4.07701e-37 -9.46268e-38 0)
(-9.41147e-36 -1.01331e-36 0)
(-6.11301e-35 -2.24923e-35 0)
(-1.73914e-33 -2.06485e-35 0)
(-1.68706e-33 4.42562e-35 0)
(1.68706e-33 4.42562e-35 0)
(1.73914e-33 -2.06485e-35 0)
(6.113e-35 -2.24923e-35 0)
(9.41227e-36 -1.01346e-36 0)
(3.92258e-37 -9.74051e-38 0)
(3.55357e-38 -4.14801e-39 0)
(1.49532e-39 -2.80362e-40 0)
(-3.90036e-46 -2.28413e-41 0)
(-1.49533e-39 -2.80363e-40 0)
(-3.55359e-38 -4.14804e-39 0)
(-3.92262e-37 -9.74058e-38 0)
(-9.41237e-36 -1.01347e-36 0)
(-6.11315e-35 -2.24926e-35 0)
(-1.73917e-33 -2.06527e-35 0)
(-1.68746e-33 4.41585e-35 0)
(1.67762e-33 4.32385e-35 0)
(1.67762e-33 -4.32385e-35 0)
(-1.68746e-33 -4.41585e-35 0)
(-1.73917e-33 2.06527e-35 0)
(-6.11315e-35 2.24926e-35 0)
(-9.41237e-36 1.01347e-36 0)
(-3.92266e-37 9.74051e-38 0)
(-3.56364e-38 4.13657e-39 0)
(-3.00265e-39 -5.96362e-43 0)
(-3.57321e-38 -4.14739e-39 0)
(-3.93665e-37 -9.76734e-38 0)
(-9.4464e-36 -1.01734e-36 0)
(-6.14881e-35 -2.25858e-35 0)
(-1.74819e-33 -2.15685e-35 0)
(-1.73914e-33 2.26838e-35 0)
(-2.9381e-42 4.518e-35 0)
(1.73914e-33 2.26838e-35 0)
(1.74819e-33 -2.15687e-35 0)
(6.14542e-35 -2.25862e-35 0)
(9.26075e-36 -9.6109e-37 0)
(-3.71744e-38 4.50334e-38 0)
(-7.60284e-37 5.1242e-37 0)
(-5.45531e-36 1.13903e-35 0)
(-1.10167e-34 1.04564e-35 0)
(-1.05439e-34 -2.241e-35 0)
(1.05439e-34 -2.241e-35 0)
(1.10167e-34 1.04564e-35 0)
(5.4553e-36 1.13903e-35 0)
(7.60378e-37 5.12525e-37 0)
(3.64374e-38 4.845e-38 0)
(3.17514e-39 2.05018e-39 0)
(1.44528e-40 1.3719e-40 0)
(-4.0158e-47 1.11143e-41 0)
(-1.44529e-40 1.37191e-40 0)
(-3.17517e-39 2.05019e-39 0)
(-3.64378e-38 4.84503e-38 0)
(-7.60388e-37 5.1253e-37 0)
(-5.45545e-36 1.13905e-35 0)
(-1.1017e-34 1.04585e-35 0)
(-1.05475e-34 -2.23614e-35 0)
(1.04675e-34 -2.18954e-35 0)
(1.04675e-34 2.18954e-35 0)
(-1.05475e-34 2.23614e-35 0)
(-1.1017e-34 -1.04585e-35 0)
(-5.45545e-36 -1.13905e-35 0)
(-7.60388e-37 -5.1253e-37 0)
(-3.64382e-38 -4.845e-38 0)
(-3.18472e-39 -2.04461e-39 0)
(-2.90257e-40 2.88489e-43 0)
(-3.19379e-39 2.04988e-39 0)
(-3.65736e-38 4.85814e-38 0)
(-7.63418e-37 5.14443e-37 0)
(-5.4887e-36 1.14369e-35 0)
(-1.10894e-34 1.09224e-35 0)
(-1.10167e-34 -1.14856e-35 0)
(-3.42543e-43 -2.28779e-35 0)
(1.10167e-34 -1.14856e-35 0)
(1.10894e-34 1.09225e-35 0)
(5.48522e-36 1.1436e-35 0)
(7.39922e-37 4.25404e-37 0)
(-5.39237e-39 3.99213e-39 0)
(-9.48614e-38 4.69854e-38 0)
(-3.31856e-37 8.76624e-37 0)
(-4.73455e-36 7.90732e-37 0)
(-4.49305e-36 -1.71889e-36 0)
(4.49305e-36 -1.71889e-36 0)
(4.73455e-36 7.90732e-37 0)
(3.31854e-37 8.76624e-37 0)
(9.48594e-38 4.69943e-38 0)
(4.99567e-39 4.32799e-39 0)
(5.18121e-40 1.98996e-40 0)
(2.44707e-41 1.31029e-41 0)
(-7.70319e-48 1.11933e-42 0)
(-2.44708e-41 1.3103e-41 0)
(-5.18126e-40 1.98997e-40 0)
(-4.99574e-39 4.32802e-39 0)
(-9.48611e-38 4.69949e-38 0)
(-3.31879e-37 8.76637e-37 0)
(-4.73507e-36 7.90931e-37 0)
(-4.49807e-36 -1.71455e-36 0)
(4.39767e-36 -1.6717e-36 0)
(4.39767e-36 1.6717e-36 0)
(-4.49807e-36 1.71455e-36 0)
(-4.73507e-36 -7.90931e-37 0)
(-3.31879e-37 -8.76637e-37 0)
(-9.48611e-38 -4.69949e-38 0)
(-4.99582e-39 -4.32799e-39 0)
(-5.19854e-40 -1.98435e-40 0)
(-4.9162e-41 2.88014e-44 0)
(-5.21496e-40 1.98966e-40 0)
(-5.01864e-39 4.3405e-39 0)
(-9.53546e-38 4.71808e-38 0)
(-3.36355e-37 8.80766e-37 0)
(-4.82491e-36 8.33585e-37 0)
(-4.73455e-36 -8.8512e-37 0)
(-1.55268e-44 -1.76193e-36 0)
(4.73455e-36 -8.85119e-37 0)
(4.82491e-36 8.33594e-37 0)
(3.36343e-37 8.80686e-37 0)
(9.56878e-38 3.90332e-38 0)
(-4.08612e-40 6.60845e-40 0)
(-6.44205e-39 6.73802e-39 0)
(-1.50246e-38 1.21902e-37 0)
(-1.55367e-37 1.09759e-37 0)
(-1.46449e-37 -2.39154e-37 0)
(1.46449e-37 -2.39154e-37 0)
(1.55367e-37 1.09759e-37 0)
(1.50245e-38 1.21902e-37 0)
(6.44151e-39 6.7403e-39 0)
(3.73969e-40 7.16318e-40 0)
(4.04328e-41 3.40259e-41 0)
(2.01535e-42 2.39162e-42 0)
(-6.85797e-49 2.07448e-43 0)
(-2.01536e-42 2.39163e-42 0)
(-4.04331e-41 3.40262e-41 0)
(-3.73976e-40 7.16324e-40 0)
(-6.44165e-39 6.74041e-39 0)
(-1.50265e-38 1.21904e-37 0)
(-1.55408e-37 1.09793e-37 0)
(-1.46825e-37 -2.38435e-37 0)
(1.39967e-37 -2.32379e-37 0)
(1.39967e-37 2.32379e-37 0)
(-1.46825e-37 2.38435e-37 0)
(-1.55408e-37 -1.09793e-37 0)
(-1.50265e-38 -1.21904e-37 0)
(-6.44165e-39 -6.74041e-39 0)
(-3.73982e-40 -7.16318e-40 0)
(-4.05773e-41 -3.3922e-41 0)
(-4.04974e-42 5.48986e-45 0)
(-4.07139e-41 3.40202e-41 0)
(-3.7586e-40 7.186e-40 0)
(-6.48006e-39 6.77204e-39 0)
(-1.53599e-38 1.22586e-37 0)
(-1.61473e-37 1.15814e-37 0)
(-1.55367e-37 -1.23307e-37 0)
(-3.37234e-46 -2.45241e-37 0)
(1.55367e-37 -1.23307e-37 0)
(1.61474e-37 1.15815e-37 0)
(1.53701e-38 1.22562e-37 0)
(6.57988e-39 5.48378e-39 0)
(-3.83267e-41 5.15221e-41 0)
(-5.66898e-40 5.11845e-40 0)
(-7.70506e-40 8.56642e-39 0)
(-3.33162e-39 7.64664e-39 0)
(-3.09757e-39 -1.67842e-38 0)
(3.09757e-39 -1.67842e-38 0)
(3.33162e-39 7.64664e-39 0)
(7.70492e-40 8.56643e-39 0)
(5.66784e-40 5.12046e-40 0)
(3.41088e-41 5.60849e-41 0)
(3.95101e-42 2.80833e-42 0)
(2.00415e-43 1.99665e-43 0)
(-7.1657e-50 1.79295e-44 0)
(-2.00416e-43 1.99666e-43 0)
(-3.95105e-42 2.80835e-42 0)
(-3.41095e-41 5.60854e-41 0)
(-5.66799e-40 5.12055e-40 0)
(-7.70694e-40 8.56663e-39 0)
(-3.33559e-39 7.64946e-39 0)
(-3.13188e-39 -1.67279e-38 0)
(2.52682e-39 -1.62694e-38 0)
(2.52682e-39 1.62694e-38 0)
(-3.13188e-39 1.67279e-38 0)
(-3.33559e-39 -7.64946e-39 0)
(-7.70694e-40 -8.56663e-39 0)
(-5.66799e-40 -5.12055e-40 0)
(-3.41102e-41 -5.60849e-41 0)
(-3.96577e-42 -2.79935e-42 0)
(-4.0279e-43 4.76278e-46 0)
(-3.9797e-42 2.80783e-42 0)
(-3.42966e-41 5.62751e-41 0)
(-5.70548e-40 5.14664e-40 0)
(-8.00837e-40 8.61989e-39 0)
(-3.86806e-39 8.10522e-39 0)
(-3.33162e-39 -8.67637e-39 0)
(1.60936e-46 -1.72454e-38 0)
(3.33162e-39 -8.67637e-39 0)
(3.86818e-39 8.10521e-39 0)
(8.03381e-40 8.61766e-39 0)
(5.89671e-40 4.13759e-40 0)
(-2.6358e-42 5.05124e-42 0)
(-3.67077e-41 4.73032e-41 0)
(-3.81492e-41 7.78911e-40 0)
(-1.45189e-41 6.94476e-40 0)
(-1.10071e-41 -1.52652e-39 0)
(1.10071e-41 -1.52652e-39 0)
(1.45189e-41 6.94476e-40 0)
(3.81481e-41 7.78911e-40 0)
(3.66976e-41 4.73267e-41 0)
(2.32319e-42 5.50031e-42 0)
(2.75334e-43 2.7996e-43 0)
(1.4425e-44 2.04225e-44 0)
(-5.40387e-51 1.84959e-45 0)
(-1.44251e-44 2.04226e-44 0)
(-2.75337e-43 2.79962e-43 0)
(-2.32324e-42 5.50036e-42 0)
(-3.66987e-41 4.73276e-41 0)
(-3.81626e-41 7.78932e-40 0)
(-1.47953e-41 6.94757e-40 0)
(-1.33448e-41 -1.52099e-39 0)
(-2.5967e-41 -1.47891e-39 0)
(-2.5967e-41 1.47891e-39 0)
(-1.33448e-41 1.52099e-39 0)
(-1.47953e-41 -6.94757e-40 0)
(-3.81626e-41 -7.78932e-40 0)
(-3.66987e-41 -4.73276e-41 0)
(-2.32329e-42 -5.50031e-42 0)
(-2.76405e-43 -2.79033e-43 0)
(-2.89953e-44 4.96133e-47 0)
(-2.77415e-43 2.79908e-43 0)
(-2.3367e-42 5.51975e-42 0)
(-3.69595e-41 4.75871e-41 0)
(-4.02094e-41 7.84151e-40 0)
(-4.91552e-41 7.36563e-40 0)
(-1.45189e-41 -7.89691e-40 0)
(1.865e-47 -1.56886e-39 0)
(1.45194e-41 -7.89691e-40 0)
(4.91659e-41 7.36556e-40 0)
(4.04304e-41 7.83886e-40 0)
(3.85308e-41 3.77739e-41 0)
(-1.91541e-43 3.80069e-43 0)
(-2.68605e-42 3.23246e-42 0)
(-2.39636e-42 5.10013e-41 0)
(5.31059e-42 4.52351e-41 0)
(5.17629e-42 -9.98812e-41 0)
(-5.17629e-42 -9.98812e-41 0)
(-5.31058e-42 4.52351e-41 0)
(2.39645e-42 5.10017e-41 0)
(2.6832e-42 3.23893e-42 0)
(1.72394e-43 3.83803e-43 0)
(2.09769e-44 2.01706e-44 0)
(1.11011e-45 1.48271e-45 0)
(-4.23104e-52 1.37197e-46 0)
(-1.11012e-45 1.48272e-45 0)
(-2.09771e-44 2.01708e-44 0)
(-1.72397e-43 3.83807e-43 0)
(-2.68328e-42 3.23899e-42 0)
(-2.39757e-42 5.10032e-41 0)
(5.28952e-42 4.52553e-41 0)
(5.00278e-42 -9.94959e-41 0)
(-7.88055e-42 -9.66221e-41 0)
(-7.88055e-42 9.66221e-41 0)
(5.00278e-42 9.94959e-41 0)
(5.28952e-42 -4.52553e-41 0)
(-2.39757e-42 -5.10032e-41 0)
(-2.68328e-42 -3.23899e-42 0)
(-1.72401e-43 -3.83803e-43 0)
(-2.10601e-44 -2.01018e-44 0)
(-2.23157e-45 3.68749e-48 0)
(-2.11385e-44 2.01667e-44 0)
(-1.73432e-43 3.85213e-43 0)
(-2.70314e-42 3.25768e-42 0)
(-2.5489e-42 5.13667e-41 0)
(2.77984e-42 4.8109e-41 0)
(5.31058e-42 -5.17534e-41 0)
(2.10276e-48 -1.02774e-40 0)
(-5.31053e-42 -5.17535e-41 0)
(-2.77884e-42 4.81082e-41 0)
(2.56931e-42 5.13462e-41 0)
(2.84255e-42 2.57429e-42 0)
(1.91965e-43 1.07464e-42 0)
(-1.7132e-43 1.39397e-43 0)
(-1.33295e-43 3.74477e-42 0)
(4.31284e-43 3.32315e-42 0)
(4.15421e-43 -7.34691e-42 0)
(-4.15404e-43 -7.34689e-42 0)
(-4.31052e-43 3.32356e-42 0)
(1.36996e-43 3.75137e-42 0)
(1.62116e-43 2.41013e-43 0)
(1.0723e-44 2.92734e-44 0)
(1.31666e-45 1.55378e-45 0)
(7.10994e-47 1.15338e-46 0)
(-2.76899e-53 1.07303e-47 0)
(-7.11e-47 1.15339e-46 0)
(-1.31667e-45 1.55379e-45 0)
(-1.07233e-44 2.92737e-44 0)
(-1.62121e-43 2.41019e-43 0)
(-1.37068e-43 3.75149e-42 0)
(4.2973e-43 3.32512e-42 0)
(4.04611e-43 -7.3175e-42 0)
(-5.78843e-43 -7.10432e-42 0)
(-5.78843e-43 7.10432e-42 0)
(4.04611e-43 7.3175e-42 0)
(4.2973e-43 -3.32512e-42 0)
(-1.37068e-43 -3.75149e-42 0)
(-1.62121e-43 -2.41019e-43 0)
(-1.07235e-44 -2.92734e-44 0)
(-1.322e-45 -1.5484e-45 0)
(-1.42938e-46 2.89001e-49 0)
(-1.32704e-45 1.55348e-45 0)
(-1.07895e-44 2.93831e-44 0)
(-1.63366e-43 2.42457e-43 0)
(-1.46469e-43 3.7792e-42 0)
(2.78409e-43 3.53674e-42 0)
(4.31052e-43 -3.8087e-42 0)
(1.62429e-49 -7.56153e-42 0)
(-4.31048e-43 -3.80871e-42 0)
(-2.78338e-43 3.53666e-42 0)
(1.47869e-43 3.77749e-42 0)
(1.72787e-43 1.90485e-43 0)
(1.0596e-41 3.11614e-42 0)
(-1.57044e-43 -1.41128e-42 0)
(7.92127e-44 1.3105e-43 0)
(3.4662e-44 1.95898e-43 0)
(2.88192e-44 -4.44837e-43 0)
(-2.85108e-44 -4.44643e-43 0)
(-2.96826e-44 2.00531e-43 0)
(8.50073e-45 2.27149e-43 0)
(1.02644e-44 1.50086e-44 0)
(6.85416e-46 1.83848e-45 0)
(8.49509e-47 9.95719e-47 0)
(4.61864e-48 7.40926e-48 0)
(-1.79754e-54 6.98594e-49 0)
(-4.61868e-48 7.4093e-48 0)
(-8.49518e-47 9.95727e-47 0)
(-6.85432e-46 1.8385e-45 0)
(-1.02647e-44 1.50089e-44 0)
(-8.50536e-45 2.27157e-43 0)
(2.95979e-44 2.00631e-43 0)
(2.78342e-44 -4.42789e-43 0)
(-3.8874e-44 -4.29526e-43 0)
(-3.8874e-44 4.29526e-43 0)
(2.78342e-44 4.42789e-43 0)
(2.95979e-44 -2.00631e-43 0)
(-8.50536e-45 -2.27157e-43 0)
(-1.02647e-44 -1.50089e-44 0)
(-6.85449e-46 -1.83848e-45 0)
(-8.52986e-47 -9.92218e-47 0)
(-9.28554e-48 1.87979e-50 0)
(-8.56262e-47 9.95522e-47 0)
(-6.89738e-46 1.84552e-45 0)
(-1.0345e-44 1.51011e-44 0)
(-9.10548e-45 2.28895e-43 0)
(2.00236e-44 2.13794e-43 0)
(2.96832e-44 -2.30748e-43 0)
(1.23786e-50 -4.5799e-43 0)
(-2.96829e-44 -2.30748e-43 0)
(-2.00186e-44 2.13788e-43 0)
(9.20356e-45 2.2878e-43 0)
(1.10002e-44 1.18444e-44 0)
(4.57128e-40 3.62951e-40 0)
(2.56921e-41 -2.94083e-41 0)
(1.56648e-42 -1.98755e-42 0)
(7.83236e-44 -6.60194e-44 0)
(5.04758e-45 -3.1362e-44 0)
(-1.47125e-45 -2.82091e-44 0)
(-1.68063e-45 1.26547e-44 0)
(4.68305e-46 1.43547e-44 0)
(5.70605e-46 9.57232e-46 0)
(3.88504e-47 1.1826e-46 0)
(4.82391e-48 6.44833e-48 0)
(2.65811e-49 4.8055e-49 0)
(-9.65053e-56 4.54639e-50 0)
(-2.65813e-49 4.80553e-49 0)
(-4.82395e-48 6.44838e-48 0)
(-3.88511e-47 1.18262e-46 0)
(-5.70618e-46 9.57259e-46 0)
(-4.68358e-46 1.43553e-44 0)
(1.68143e-45 1.26653e-44 0)
(1.57892e-45 -2.79774e-44 0)
(-2.19348e-45 -2.71324e-44 0)
(-2.19348e-45 2.71324e-44 0)
(1.57892e-45 2.79774e-44 0)
(1.68143e-45 -1.26653e-44 0)
(-4.68358e-46 -1.43553e-44 0)
(-5.70618e-46 -9.57259e-46 0)
(-3.88521e-47 -1.1826e-46 0)
(-4.84388e-48 -6.42555e-48 0)
(-5.34419e-49 1.2205e-51 0)
(-4.8627e-48 6.44705e-48 0)
(-3.9099e-47 1.18717e-46 0)
(-5.75174e-46 9.63227e-46 0)
(-5.02364e-46 1.44671e-44 0)
(1.14995e-45 1.35038e-44 0)
(1.68627e-45 -1.45863e-44 0)
(7.90136e-52 -2.89471e-44 0)
(-1.68625e-45 -1.45863e-44 0)
(-1.14965e-45 1.35034e-44 0)
(5.08202e-46 1.44592e-44 0)
(6.14183e-46 7.54153e-46 0)
(3.6036e-35 -1.26556e-31 0)
(2.14723e-32 -6.4152e-33 0)
(1.96856e-33 -4.28201e-30 0)
(-1.46645e-33 -1.53716e-31 0)
(6.66004e-32 5.05135e-31 0)
(2.07671e-32 1.83731e-32 0)
(1.96816e-33 4.80418e-30 0)
(3.55513e-33 1.72955e-31 0)
(3.65961e-35 1.44527e-31 0)
(2.40122e-32 7.35148e-33 0)
(6.36828e-37 6.4912e-32 0)
(-7.8397e-34 3.30165e-33 0)
(3.33504e-36 2.92573e-31 0)
(-3.94707e-32 1.48414e-32 0)
(6.44697e-36 7.74642e-30 0)
(-7.68272e-32 2.85589e-31 0)
(2.05885e-37 1.54631e-29 0)
(-2.45897e-33 5.62437e-31 0)
(-6.43848e-36 8.23456e-30 0)
(7.67328e-32 3.031e-31 0)
(4.20148e-32 1.55127e-32 0)
(1.85037e-33 2.18084e-33 0)
(1.63845e-34 1.01856e-34 0)
(6.64166e-36 8.76044e-36 0)
(4.20438e-37 1.67389e-36 0)
(-1.79542e-38 1.9957e-35 0)
(-5.39737e-37 5.05249e-34 0)
(-1.39238e-35 5.66713e-33 0)
(-1.56825e-34 1.44854e-31 0)
(-3.7731e-33 9.39403e-31 0)
(-3.62969e-33 2.80659e-29 0)
(3.62969e-33 2.80659e-29 0)
(3.7731e-33 9.39403e-31 0)
(1.54896e-34 1.4485e-31 0)
(-1.19886e-34 5.62266e-33 0)
(-6.84017e-33 -6.10928e-34 0)
(-2.31505e-31 1.9933e-35 0)
(-6.84071e-33 1.11747e-33 0)
(-1.3381e-34 4.45224e-35 0)
(-1.92856e-36 4.36466e-36 0)
(-3.24171e-39 1.68868e-37 0)
(1.50137e-38 1.61426e-38 0)
(1.15124e-37 9.1648e-38 0)
(1.08112e-33 -2.5926e-34 0)
(1.19051e-34 -1.18145e-35 0)
(5.91498e-36 -8.09297e-37 0)
(4.43759e-37 -3.79279e-38 0)
(-6.63351e-35 -4.33053e-33 0)
(-6.77157e-37 -9.93122e-35 0)
(1.16323e-37 -2.59159e-36 0)
(3.48494e-38 -7.61678e-38 0)
(5.82522e-34 4.91774e-34 0)
(2.22223e-34 1.02594e-35 0)
(1.21564e-35 1.19373e-37 0)
(1.4578e-36 -1.09921e-39 0)
(1.96926e-34 4.8587e-33 0)
(2.79546e-35 1.10651e-34 0)
(1.5698e-36 2.75514e-36 0)
(1.43332e-37 7.66236e-38 0)
(1.25301e-33 2.59001e-34 0)
(1.36698e-34 7.23613e-36 0)
(6.89379e-36 2.53037e-37 0)
(5.15619e-37 9.35985e-39 0)
(-4.79254e-35 3.24124e-34 0)
(-5.50154e-36 1.60553e-35 0)
(-3.01019e-37 1.17464e-36 0)
(-2.28242e-38 5.61381e-38 0)
(-2.08633e-33 7.36405e-34 0)
(-2.26189e-34 2.75557e-35 0)
(-1.14585e-35 1.55044e-36 0)
(-8.50633e-37 6.85503e-38 0)
(-4.02072e-33 7.84549e-33 0)
(-4.35552e-34 1.70486e-34 0)
(-2.19459e-35 2.64232e-36 0)
(-1.62859e-36 2.00405e-38 0)
(-1.28235e-34 1.50579e-32 0)
(-1.38883e-35 3.14558e-34 0)
(-6.98441e-37 3.70996e-36 0)
(-5.18258e-38 -3.02084e-38 0)
(4.01495e-33 8.30122e-33 0)
(4.34927e-34 1.79569e-34 0)
(2.19121e-35 2.70726e-36 0)
(1.62609e-36 1.67288e-38 0)
(2.21976e-33 7.53369e-34 0)
(2.40741e-34 2.77698e-35 0)
(1.21939e-35 1.53456e-36 0)
(9.05411e-37 6.73708e-38 0)
(1.13308e-34 2.13773e-34 0)
(1.26991e-35 1.06022e-35 0)
(6.93096e-37 7.73502e-37 0)
(5.22288e-38 3.69591e-38 0)
(1.00493e-35 1.09385e-35 0)
(1.27825e-36 5.93339e-37 0)
(7.14925e-38 4.44692e-38 0)
(5.67407e-39 2.22951e-39 0)
(4.35529e-37 1.09204e-36 0)
(5.71592e-38 6.13763e-38 0)
(3.34042e-39 4.86145e-39 0)
(2.68766e-40 2.4814e-40 0)
(-2.79676e-38 1.37105e-37 0)
(-2.68445e-40 1.47469e-38 0)
(-3.34309e-40 9.41078e-40 0)
(-1.59841e-41 6.98856e-41 0)
(-1.46536e-36 1.36285e-36 0)
(-1.02887e-37 1.72821e-37 0)
(-1.39103e-38 1.02511e-38 0)
(-8.30454e-40 8.1338e-40 0)
(-2.25357e-35 3.19231e-35 0)
(-1.58452e-36 3.93573e-36 0)
(-2.02324e-37 2.21682e-37 0)
(-1.19815e-38 1.73954e-38 0)
(-5.68813e-34 3.58084e-34 0)
(-3.69998e-35 3.75814e-35 0)
(-4.6056e-36 2.04482e-36 0)
(-2.59353e-37 1.5079e-37 0)
(-6.12556e-33 7.9749e-33 0)
(-3.96809e-34 7.71753e-34 0)
(-4.3298e-35 3.83493e-35 0)
(-2.37721e-36 2.76397e-36 0)
(-1.45543e-31 5.15714e-32 0)
(-8.07701e-33 2.17472e-33 0)
(-8.61436e-34 7.06835e-35 0)
(-4.38584e-35 3.20552e-36 0)
(-1.39965e-31 1.10574e-30 0)
(-7.71572e-33 3.05355e-32 0)
(-8.22555e-34 6.39645e-34 0)
(-4.17294e-35 7.77443e-36 0)
(1.39965e-31 1.10574e-30 0)
(7.71572e-33 3.05355e-32 0)
(8.22554e-34 6.39645e-34 0)
(4.17293e-35 7.77455e-36 0)
(1.45543e-31 5.15715e-32 0)
(8.077e-33 2.17491e-33 0)
(8.61421e-34 7.06975e-35 0)
(4.38573e-35 3.2072e-36 0)
(6.12364e-33 7.97952e-33 0)
(3.96451e-34 7.76633e-34 0)
(4.30709e-35 3.86832e-35 0)
(2.36072e-36 2.80311e-36 0)
(4.35848e-34 4.05112e-34 0)
(2.26828e-35 8.73322e-35 0)
(-1.43575e-36 5.3957e-36 0)
(-1.38891e-37 4.94981e-37 0)
(-6.7815e-33 1.21229e-33 0)
(-4.33419e-34 1.24244e-33 0)
(-7.07518e-35 7.1743e-35 0)
(-4.21827e-36 7.27426e-36 0)
(-2.30602e-31 1.35958e-36 0)
(-1.05932e-32 1.72637e-37 0)
(-1.71517e-33 1.02548e-38 0)
(-8.95641e-35 9.57568e-40 0)
(-6.80398e-33 -1.18028e-33 0)
(-4.35e-34 -1.23849e-33 0)
(-7.09534e-35 -7.15202e-35 0)
(-4.22801e-36 -7.25408e-36 0)
(-1.32962e-34 -4.70242e-35 0)
(-1.43164e-35 -4.97498e-35 0)
(-6.03814e-36 -3.34205e-36 0)
(-3.56587e-37 -2.75447e-37 0)
(-1.91405e-36 -4.61131e-36 0)
(-3.47673e-37 -4.87174e-36 0)
(-1.46664e-37 -2.09991e-37 0)
(1.0972e-36 9.78449e-37 0)
(4.88693e-39 -1.65097e-37 0)
(1.30374e-37 -2.54252e-38 0)
(1.18603e-36 2.87407e-36 0)
(1.70043e-35 2.42094e-35 0)
(1.92721e-37 8.97463e-38 0)
(3.40129e-36 1.37315e-36 0)
(2.8898e-35 2.52451e-35 0)
(4.50836e-34 2.40238e-34 0)
(1.63666e-36 1.98243e-36 0)
(3.00971e-35 2.71581e-35 0)
(3.02092e-34 5.32937e-34 0)
(5.2282e-33 5.12119e-33 0)
(1.95676e-38 -1.70701e-39 0)
(1.06779e-39 -3.01646e-41 0)
(4.19779e-41 -9.53465e-43 0)
(1.94841e-42 -3.27422e-44 0)
(7.17942e-44 -2.61157e-45 0)
(2.85767e-45 -1.19509e-45 0)
(3.00944e-47 5.10716e-46 0)
(2.31077e-47 5.82837e-46 0)
(2.38561e-47 3.95626e-47 0)
(1.62614e-48 4.94702e-48 0)
(2.01483e-49 2.73548e-49 0)
(1.11173e-50 2.05052e-50 0)
(9.94097e-56 1.95909e-51 0)
(-1.11137e-50 2.05054e-50 0)
(-2.01366e-49 2.73553e-49 0)
(-1.62223e-48 4.94716e-48 0)
(-2.37381e-47 3.95664e-47 0)
(-1.94328e-47 5.82934e-46 0)
(7.04445e-47 5.13188e-46 0)
(6.61288e-47 -1.13567e-45 0)
(-9.17017e-47 -1.10079e-45 0)
(-9.17017e-47 1.10079e-45 0)
(6.61288e-47 1.13567e-45 0)
(7.04445e-47 -5.13188e-46 0)
(-1.94328e-47 -5.82934e-46 0)
(-2.37381e-47 -3.95664e-47 0)
(-1.62227e-48 -4.94711e-48 0)
(-2.02196e-49 -2.72569e-49 0)
(-2.23437e-50 5.26886e-53 0)
(-2.0298e-49 2.73496e-49 0)
(-1.63259e-48 4.96657e-48 0)
(-2.39283e-47 3.98194e-47 0)
(-2.08528e-47 5.87607e-46 0)
(4.83406e-47 5.47786e-46 0)
(7.06467e-47 -5.92594e-46 0)
(3.59445e-53 -1.17576e-45 0)
(-7.06459e-47 -5.92595e-46 0)
(-4.83271e-47 5.47767e-46 0)
(2.11145e-47 5.87264e-46 0)
(2.57075e-47 3.1072e-47 0)
(2.18454e-39 -4.20762e-39 0)
(1.8335e-40 -1.73888e-40 0)
(8.92286e-42 -9.95507e-42 0)
(5.32722e-43 -4.04954e-43 0)
(2.29107e-44 -1.95324e-44 0)
(1.11268e-45 -7.78412e-46 0)
(4.12481e-47 -1.11066e-47 0)
(2.43759e-48 2.11312e-47 0)
(8.17663e-49 1.47392e-48 0)
(5.4519e-50 1.86772e-49 0)
(6.56672e-51 1.0369e-50 0)
(3.64035e-52 7.72528e-52 0)
(8.34589e-56 7.37746e-53 0)
(-3.6132e-52 7.73849e-52 0)
(-6.4862e-51 1.04125e-50 0)
(-5.20872e-50 1.88067e-49 0)
(-7.52357e-49 1.51367e-48 0)
(-6.13929e-49 2.22036e-47 0)
(2.23566e-48 1.9533e-47 0)
(2.09689e-48 -4.32495e-47 0)
(-2.90819e-48 -4.19142e-47 0)
(-2.90819e-48 4.19142e-47 0)
(2.09689e-48 4.32495e-47 0)
(2.23566e-48 -1.9533e-47 0)
(-6.13929e-49 -2.22036e-47 0)
(-7.52357e-49 -1.51367e-48 0)
(-5.20885e-50 -1.88065e-49 0)
(-6.51317e-51 -1.03754e-50 0)
(-7.26445e-52 1.96662e-54 0)
(-6.53864e-51 1.04103e-50 0)
(-5.24242e-50 1.888e-49 0)
(-7.5848e-49 1.52331e-48 0)
(-6.59502e-49 2.23812e-47 0)
(1.53578e-48 2.08578e-47 0)
(2.24217e-48 -2.25708e-47 0)
(1.25413e-54 -4.47833e-47 0)
(-2.24214e-48 -2.25708e-47 0)
(-1.53532e-48 2.08571e-47 0)
(6.6825e-49 2.23677e-47 0)
(8.17813e-49 1.1917e-48 0)
(7.09867e-38 -2.0676e-40 0)
(5.0944e-39 -9.15849e-42 0)
(2.20392e-40 -4.33637e-43 0)
(1.2366e-41 -1.59286e-44 0)
(4.96872e-43 -6.44481e-46 0)
(2.34046e-44 -2.33705e-47 0)
(8.73161e-46 -1.66465e-49 0)
(3.59059e-47 6.90945e-49 0)
(1.27093e-48 4.86627e-50 0)
(4.7492e-50 6.12915e-51 0)
(1.69859e-51 3.43123e-52 0)
(6.15056e-53 2.54867e-53 0)
(1.49018e-54 2.44566e-54 0)
(-1.2178e-53 2.55082e-53 0)
(-2.1935e-52 3.43886e-52 0)
(-1.77368e-51 6.1543e-51 0)
(-2.55502e-50 4.95015e-50 0)
(-2.08306e-50 7.16387e-49 0)
(7.59371e-50 6.29054e-49 0)
(7.1206e-50 -1.39492e-48 0)
(-9.87616e-50 -1.35125e-48 0)
(-9.87616e-50 1.35125e-48 0)
(7.1206e-50 1.39492e-48 0)
(7.59371e-50 -6.29054e-49 0)
(-2.08306e-50 -7.16387e-49 0)
(-2.55502e-50 -4.95015e-50 0)
(-1.77372e-51 -6.15423e-51 0)
(-2.20256e-52 -3.42657e-52 0)
(-2.45743e-53 6.49387e-56 0)
(-2.2111e-52 3.43815e-52 0)
(-1.78508e-51 6.17845e-51 0)
(-2.57573e-50 4.98199e-50 0)
(-2.23839e-50 7.22196e-49 0)
(5.21737e-50 6.72375e-49 0)
(7.61574e-50 -7.284e-49 0)
(4.45076e-56 -1.44508e-48 0)
(-7.61564e-50 -7.28401e-49 0)
(-5.21578e-50 6.72348e-49 0)
(2.26881e-50 7.21739e-49 0)
(2.78578e-50 3.89843e-50 0)
(6.9487e-39 4.08014e-39 0)
(4.40268e-40 1.68137e-40 0)
(1.89424e-41 9.68968e-42 0)
(9.92075e-43 3.95345e-43 0)
(3.96825e-44 1.91045e-44 0)
(1.79114e-45 7.21864e-46 0)
(6.65885e-47 3.0181e-47 0)
(2.6608e-48 1.08103e-48 0)
(9.28316e-50 4.09209e-50 0)
(3.36809e-51 1.48733e-51 0)
(1.13646e-52 5.46158e-53 0)
(3.88854e-54 2.16413e-54 0)
(1.06074e-55 1.22298e-55 0)
(-3.70696e-55 8.59339e-55 0)
(-6.66722e-54 1.16739e-53 0)
(-5.41342e-53 2.08868e-52 0)
(-7.71704e-52 1.69314e-51 0)
(-6.27559e-52 2.44328e-50 0)
(2.29332e-51 2.14426e-50 0)
(2.14882e-51 -4.75677e-50 0)
(-2.98171e-51 -4.60726e-50 0)
(-2.98171e-51 4.60726e-50 0)
(2.14882e-51 4.75677e-50 0)
(2.29332e-51 -2.14426e-50 0)
(-6.2756e-52 -2.44328e-50 0)
(-7.71704e-52 -1.69314e-51 0)
(-5.41355e-53 -2.08866e-52 0)
(-6.69484e-54 -1.16326e-53 0)
(-7.51693e-55 2.15996e-57 0)
(-6.72083e-54 1.16715e-53 0)
(-5.44832e-53 2.09681e-52 0)
(-7.77995e-52 1.70395e-51 0)
(-6.74998e-52 2.463e-50 0)
(1.57615e-51 2.2926e-50 0)
(2.30001e-51 -2.48405e-50 0)
(1.41959e-57 -4.92834e-50 0)
(-2.29998e-51 -2.48406e-50 0)
(-1.57565e-51 2.2925e-50 0)
(6.84409e-52 2.46141e-50 0)
(8.43541e-52 1.33704e-51 0)
(2.25952e-38 4.99948e-40 0)
(1.2271e-39 2.04861e-41 0)
(4.81243e-41 1.0461e-42 0)
(2.22672e-42 4.14721e-44 0)
(8.18251e-44 1.85219e-45 0)
(3.32909e-45 6.84494e-47 0)
(1.14463e-46 2.71429e-48 0)
(4.17964e-48 9.41802e-50 0)
(1.34542e-49 3.39553e-51 0)
(4.47291e-51 1.1384e-52 0)
(1.35074e-52 3.87205e-54 0)
(4.13378e-54 1.31822e-55 0)
(1.16712e-55 5.69381e-57 0)
(-8.21833e-57 2.62166e-56 0)
(-2.05448e-55 3.57348e-55 0)
(-1.68377e-54 6.35342e-54 0)
(-2.39505e-53 5.17264e-53 0)
(-1.9462e-53 7.38661e-52 0)
(7.11655e-53 6.47251e-52 0)
(6.66662e-53 -1.43761e-51 0)
(-9.25176e-53 -1.39191e-51 0)
(-9.25176e-53 1.39191e-51 0)
(6.66662e-53 1.43761e-51 0)
(7.11655e-53 -6.47251e-52 0)
(-1.9462e-53 -7.38661e-52 0)
(-2.39505e-53 -5.17264e-53 0)
(-1.68381e-54 -6.35336e-54 0)
(-2.06376e-55 -3.56087e-55 0)
(-2.3165e-56 6.55386e-59 0)
(-2.0717e-55 3.57274e-55 0)
(-1.69454e-54 6.37816e-54 0)
(-2.41445e-53 5.20577e-53 0)
(-2.09393e-53 7.44655e-52 0)
(4.89111e-53 6.92597e-52 0)
(7.13719e-53 -7.5106e-52 0)
(4.50534e-59 -1.49003e-51 0)
(-7.13709e-53 -7.51061e-52 0)
(-4.88954e-53 6.92566e-52 0)
(2.12343e-53 7.4416e-52 0)
(2.62363e-53 4.09197e-53 0)
(-1.04708e-39 3.10508e-39 0)
(-5.66332e-41 1.2094e-40 0)
(-2.27605e-42 5.55847e-42 0)
(-1.04209e-43 2.03792e-43 0)
(-3.87451e-45 8.2504e-45 0)
(-1.5547e-46 2.82944e-46 0)
(-5.36278e-48 1.02828e-47 0)
(-1.92756e-49 3.29978e-49 0)
(-6.18573e-51 1.09182e-50 0)
(-2.02096e-52 3.28382e-52 0)
(-6.04725e-54 9.99642e-54 0)
(-1.81367e-55 2.82496e-55 0)
(-5.08911e-57 8.01765e-57 0)
(-4.69515e-58 1.0082e-57 0)
(-5.83139e-57 1.10199e-56 0)
(-4.80934e-56 1.95893e-55 0)
(-6.78501e-55 1.60922e-54 0)
(-5.5017e-55 2.29295e-53 0)
(2.0157e-54 2.00824e-53 0)
(1.88706e-54 -4.46202e-53 0)
(-2.61981e-54 -4.31967e-53 0)
(-2.61981e-54 4.31967e-53 0)
(1.88706e-54 4.46202e-53 0)
(2.0157e-54 -2.00824e-53 0)
(-5.5017e-55 -2.29295e-53 0)
(-6.78502e-55 -1.60922e-54 0)
(-4.80945e-56 -1.95891e-55 0)
(-5.85141e-57 -1.09761e-56 0)
(-6.59558e-58 1.97673e-60 0)
(-5.87384e-57 1.10123e-56 0)
(-4.84e-56 1.96648e-55 0)
(-6.83999e-55 1.61943e-54 0)
(-5.92411e-55 2.31143e-53 0)
(1.38564e-54 2.14949e-53 0)
(2.02155e-54 -2.33118e-53 0)
(1.31667e-60 -4.62508e-53 0)
(-2.02152e-54 -2.33118e-53 0)
(-1.38519e-54 2.14939e-53 0)
(6.00876e-55 2.30988e-53 0)
(7.44831e-55 1.27676e-54 0)
(-3.72946e-38 3.65831e-39 0)
(-2.00971e-39 1.40998e-40 0)
(-7.86937e-41 6.44722e-42 0)
(-3.61302e-42 2.35517e-43 0)
(-1.32373e-43 9.50524e-45 0)
(-5.34454e-45 3.24966e-46 0)
(-1.83024e-46 1.17751e-47 0)
(-6.6329e-48 3.76703e-49 0)
(-2.12457e-49 1.24267e-50 0)
(-7.00939e-51 3.7248e-52 0)
(-2.10294e-52 1.13e-53 0)
(-6.38033e-54 3.17857e-55 0)
(-1.79591e-55 8.93582e-57 0)
(-5.05765e-57 2.58721e-58 0)
(-2.98618e-58 3.19811e-58 0)
(-1.37971e-57 5.55479e-57 0)
(-1.938e-56 4.59669e-56 0)
(-1.5703e-56 6.49636e-55 0)
(5.75648e-56 5.68228e-55 0)
(5.38792e-56 -1.26381e-54 0)
(-7.48097e-56 -1.2231e-54 0)
(-7.48097e-56 1.2231e-54 0)
(5.38792e-56 1.26381e-54 0)
(5.75648e-56 -5.68228e-55 0)
(-1.5703e-56 -6.49636e-55 0)
(-1.93799e-56 -4.59669e-56 0)
(-1.37624e-57 -5.55458e-57 0)
(-1.65745e-58 -3.12541e-58 0)
(-1.86688e-59 5.54718e-62 0)
(-1.66373e-58 3.13565e-58 0)
(-1.3849e-57 5.57598e-57 0)
(-1.95356e-56 4.62579e-56 0)
(-1.69135e-56 6.54876e-55 0)
(3.9571e-56 6.08617e-55 0)
(5.77305e-56 -6.60474e-55 0)
(3.79357e-62 -1.31038e-54 0)
(-5.77297e-56 -6.60476e-55 0)
(-3.95579e-56 6.08589e-55 0)
(1.71561e-56 6.54427e-55 0)
(2.13112e-56 3.65641e-56 0)
(-7.11571e-38 -1.18371e-39 0)
(-3.83374e-39 -6.4195e-41 0)
(-1.49747e-40 -3.17353e-42 0)
(-6.87413e-42 -1.17869e-43 0)
(-2.51388e-43 -4.77371e-45 0)
(-1.01481e-44 -1.63582e-46 0)
(-3.47032e-46 -5.92856e-48 0)
(-1.25744e-47 -1.89907e-49 0)
(-4.02322e-49 -6.26505e-51 0)
(-1.32709e-50 -1.87967e-52 0)
(-3.97797e-52 -5.70267e-54 0)
(-1.20667e-53 -1.60518e-55 0)
(-3.39403e-55 -4.51204e-57 0)
(-9.53899e-57 -1.18723e-58 0)
(-2.56541e-58 5.75145e-60 0)
(-4.34217e-59 1.5727e-58 0)
(-5.15307e-58 1.31535e-57 0)
(-4.16661e-58 1.85553e-56 0)
(1.52984e-57 1.62227e-56 0)
(1.43113e-57 -3.60927e-56 0)
(-1.98771e-57 -3.49264e-56 0)
(-1.98771e-57 3.49264e-56 0)
(1.43113e-57 3.60927e-56 0)
(1.52984e-57 -1.62227e-56 0)
(-4.16657e-58 -1.85553e-56 0)
(-5.15143e-58 -1.31535e-57 0)
(-3.68194e-59 -1.57347e-58 0)
(-4.39267e-60 -8.84717e-60 0)
(-4.96028e-61 1.5338e-63 0)
(-4.40921e-60 8.87578e-60 0)
(-3.70495e-59 1.57946e-58 0)
(-5.1927e-58 1.32359e-57 0)
(-4.49082e-58 1.87037e-56 0)
(1.05178e-57 1.73801e-56 0)
(1.53424e-57 -1.88623e-56 0)
(1.02384e-63 -3.74252e-56 0)
(-1.53421e-57 -1.88623e-56 0)
(-1.05143e-57 1.73793e-56 0)
(4.55568e-58 1.86908e-56 0)
(5.67503e-58 1.0496e-57 0)
(-2.2616e-39 -6.12943e-39 0)
(-1.21841e-40 -2.73115e-40 0)
(-4.75489e-42 -1.29634e-41 0)
(-2.18261e-43 -4.77009e-43 0)
(-7.97645e-45 -1.92822e-44 0)
(-3.21976e-46 -6.59509e-46 0)
(-1.10047e-47 -2.38957e-47 0)
(-3.98719e-49 -7.64498e-49 0)
(-1.27518e-50 -2.52155e-50 0)
(-4.20593e-52 -7.55788e-52 0)
(-1.26031e-53 -2.29245e-53 0)
(-3.82268e-55 -6.44765e-55 0)
(-1.07491e-56 -1.81198e-56 0)
(-3.02078e-58 -4.78974e-58 0)
(-8.09846e-60 -1.23064e-59 0)
(-1.1857e-60 3.85822e-60 0)
(-1.36478e-59 3.51825e-59 0)
(-1.10267e-59 4.93232e-58 0)
(4.05081e-59 4.30753e-58 0)
(3.7886e-59 -9.59158e-58 0)
(-5.26265e-59 -9.27919e-58 0)
(-5.26265e-59 9.27919e-58 0)
(3.7886e-59 9.59158e-58 0)
(4.05081e-59 -4.30753e-58 0)
(-1.10266e-59 -4.93232e-58 0)
(-1.36426e-59 -3.51902e-59 0)
(-9.76685e-61 -4.17028e-60 0)
(-1.1522e-61 -2.35073e-61 0)
(-1.29964e-62 3.01694e-65 0)
(-1.15648e-61 2.35836e-61 0)
(-9.8272e-61 4.18606e-60 0)
(-1.37508e-59 3.54094e-59 0)
(-1.1888e-59 4.97166e-58 0)
(2.78491e-59 4.61756e-58 0)
(4.06233e-59 -5.01369e-58 0)
(2.73581e-65 -9.94805e-58 0)
(-4.06227e-59 -5.0137e-58 0)
(-2.78397e-59 4.61734e-58 0)
(1.20596e-59 4.96819e-58 0)
(1.5051e-59 2.81661e-59 0)
(7.10431e-38 -1.50417e-39 0)
(3.82759e-39 -7.77183e-41 0)
(1.49499e-40 -3.80711e-42 0)
(6.86277e-42 -1.41122e-43 0)
(2.50964e-43 -5.71321e-45 0)
(1.0131e-44 -1.95707e-46 0)
(3.46435e-46 -7.09245e-48 0)
(1.25527e-47 -2.27136e-49 0)
(4.01619e-49 -7.49283e-51 0)
(1.32476e-50 -2.24759e-52 0)
(3.97091e-52 -6.81846e-54 0)
(1.20452e-53 -1.91893e-55 0)
(3.38793e-55 -5.39363e-57 0)
(9.52154e-57 -1.4265e-58 0)
(2.51704e-58 -3.7297e-60 0)
(6.56662e-60 1.63893e-62 0)
(-1.76751e-61 9.31118e-61 0)
(-2.70981e-61 1.30618e-59 0)
(1.01171e-60 1.14023e-59 0)
(9.45695e-61 -2.5397e-59 0)
(-1.31399e-60 -2.45673e-59 0)
(-1.31398e-60 2.45673e-59 0)
(9.45695e-61 2.53975e-59 0)
(1.0116e-60 -1.14022e-59 0)
(-2.75003e-61 -1.30618e-59 0)
(-3.40767e-61 -9.33449e-61 0)
(-2.45103e-62 -1.09383e-61 0)
(-2.87191e-63 -5.73776e-63 0)
(-3.3413e-64 -4.22477e-64 0)
(-2.8616e-63 6.15189e-63 0)
(-2.46703e-62 1.09797e-61 0)
(-3.43454e-61 9.39187e-61 0)
(-2.96659e-61 1.31651e-59 0)
(6.95534e-61 1.22259e-59 0)
(1.01447e-60 -1.32753e-59 0)
(1.31867e-65 -2.63425e-59 0)
(-1.01446e-60 -1.32748e-59 0)
(-6.95311e-61 1.22252e-59 0)
(3.00939e-61 1.31558e-59 0)
(3.7655e-61 7.49249e-61 0)
(3.9694e-38 3.58442e-39 0)
(2.1392e-39 1.37956e-40 0)
(8.37592e-41 6.30588e-42 0)
(3.84574e-42 2.30203e-43 0)
(1.40891e-43 9.28904e-45 0)
(5.68851e-45 3.17411e-46 0)
(1.94792e-46 1.14992e-47 0)
(7.05933e-48 3.67716e-49 0)
(2.26103e-49 1.21278e-50 0)
(7.45943e-51 3.63381e-52 0)
(2.23784e-52 1.10217e-53 0)
(6.78939e-54 3.09908e-55 0)
(1.91093e-55 8.70909e-57 0)
(5.3715e-57 2.30175e-58 0)
(1.42077e-58 6.02709e-60 0)
(3.72042e-60 1.52548e-61 0)
(8.42093e-62 2.54299e-62 0)
(-4.41751e-63 3.25591e-61 0)
(2.50864e-62 2.87044e-61 0)
(2.32896e-62 -6.32409e-61 0)