/*--------------------------------*- C++ -*----------------------------------*\
| =========                 |                                                 |
| \\      /  F ield         | OpenFOAM: The Open Source CFD Toolbox           |
|  \\    /   O peration     | Version:  2.4.0                                 |
|   \\  /    A nd           | Web:      www.OpenFOAM.org                      |
|    \\/     M anipulation  |                                                 |
\*---------------------------------------------------------------------------*/
FoamFile
{
    version     2.0;
    format      ascii;
    class       volVectorField;
    location    "0.35";
    object      U;
}
// * * * * * * * * * * * * * * * * * * * * * * * * * * * * * * * * * * * * * //

dimensions      [0 1 -1 0 0 0 0];

internalField   nonuniform List<vector> 
1935
(
(2.51072e-35 4.09711e-40 0)
(2.22047e-36 -1.51893e-36 0)
(3.28936e-37 -1.51816e-37 0)
(3.69624e-38 -2.38894e-37 0)
(-1.65639e-37 -2.7897e-36 0)
(-2.13771e-35 -4.65025e-35 0)
(-8.92179e-34 -4.43994e-34 0)
(-2.71261e-32 -6.83039e-33 0)
(-5.45925e-31 -2.26816e-32 0)
(-2.65545e-32 -3.71396e-31 0)
(7.74856e-33 -1.95392e-30 0)
(-7.81044e-34 -3.99901e-29 0)
(-1.76008e-32 8.18431e-31 0)
(-4.1196e-34 4.08542e-29 0)
(8.83257e-33 2.00775e-30 0)
(5.85059e-34 3.86662e-31 0)
(-3.63334e-36 4.63041e-32 0)
(-5.82544e-34 4.06601e-31 0)
(-9.22267e-33 1.78612e-30 0)
(1.17566e-32 4.34012e-29 0)
(3.04511e-32 -5.0559e-29 0)
(-1.03549e-32 -9.63704e-29 0)
(-3.09265e-32 -3.17527e-30 0)
(1.10098e-32 4.54231e-29 0)
(3.16436e-32 -5.34259e-29 0)
(-2.15957e-32 -1.0062e-28 0)
(-2.23347e-32 4.66622e-29 0)
(8.36017e-33 8.05625e-31 0)
(-3.75553e-32 6.15077e-31 0)
(-7.71371e-31 -3.40053e-30 0)
(-3.90782e-32 -5.44789e-29 0)
(-1.30348e-32 -2.68083e-30 0)
(-8.13596e-34 -5.10674e-31 0)
(-8.44795e-35 -3.10848e-32 0)
(1.59387e-37 -6.90062e-33 0)
(8.84771e-35 -3.06492e-32 0)
(7.73319e-34 -5.32739e-31 0)
(1.21605e-32 -2.35807e-30 0)
(-1.5383e-32 -5.72148e-29 0)
(-4.01132e-32 6.61338e-29 0)
(1.27119e-32 1.27036e-28 0)
(2.76539e-32 6.67916e-30 0)
(1.77825e-33 1.27421e-30 0)
(2.85789e-34 -4.40986e-40 0)
(3.67581e-33 -4.90336e-40 0)
(3.09251e-32 -6.51033e-41 0)
(3.82655e-31 -1.13486e-41 0)
(2.48835e-35 -2.2084e-35 0)
(3.01259e-34 -2.4006e-34 0)
(2.48187e-33 -3.04156e-33 0)
(2.71823e-32 -2.3878e-32 0)
(3.46389e-36 -1.94876e-36 0)
(3.96099e-35 -2.09197e-35 0)
(2.81475e-34 -2.4895e-34 0)
(2.69239e-33 -1.90075e-33 0)
(2.62191e-37 -1.15527e-37 0)
(2.67507e-36 -2.74367e-36 0)
(1.80975e-35 -3.34208e-35 0)
(1.56282e-34 -2.31146e-34 0)
(-9.05021e-38 2.09876e-36 0)
(-1.43336e-38 2.21765e-36 0)
(1.25453e-36 -1.98176e-36 0)
(1.22112e-35 -1.5181e-35 0)
(-2.03763e-35 3.47657e-35 0)
(-5.17657e-36 3.95684e-35 0)
(-2.92032e-36 4.38769e-36 0)
(3.35198e-37 -6.1655e-37 0)
(-8.70173e-34 2.93383e-34 0)
(-1.38194e-34 3.3853e-34 0)
(-5.21482e-35 3.79824e-35 0)
(-5.55361e-36 4.83716e-36 0)
(-2.67377e-32 4.3254e-33 0)
(-2.83142e-33 4.9387e-33 0)
(-5.33745e-34 4.77677e-34 0)
(-5.0028e-35 5.99313e-35 0)
(-5.39918e-31 -2.41779e-33 0)
(-4.09962e-32 -3.0822e-34 0)
(-7.49981e-33 -2.5385e-35 0)
(-6.23212e-34 -2.34932e-36 0)
(-3.42406e-33 -3.96441e-32 0)
(-2.84486e-34 -9.022e-33 0)
(-1.91224e-34 -7.83735e-34 0)
(-2.12176e-35 -8.71124e-35 0)
(3.4616e-31 -1.79077e-31 0)
(3.22162e-32 -9.86523e-33 0)
(4.18164e-33 -3.97188e-34 0)
(3.28114e-34 -1.32218e-35 0)
(-3.09476e-32 -2.57343e-30 0)
(-3.28049e-33 -1.15261e-31 0)
(-4.42342e-34 -3.81482e-33 0)
(-3.69401e-35 -6.32517e-35 0)
(-7.07406e-31 5.39474e-32 0)
(-6.60736e-32 2.49735e-33 0)
(-8.6596e-33 8.69747e-35 0)
(-6.83527e-34 1.92028e-36 0)
(-1.69452e-32 2.63154e-30 0)
(-1.96204e-33 1.17992e-31 0)
(-2.67043e-34 3.91096e-33 0)
(-2.29472e-35 6.52984e-35 0)
(3.5476e-31 1.83709e-31 0)
(3.3092e-32 9.88223e-33 0)
(4.33095e-33 3.79086e-34 0)
(3.41462e-34 9.62324e-36 0)
(2.38725e-32 3.61203e-32 0)
(2.60829e-33 4.17776e-33 0)
(3.50989e-34 3.13257e-34 0)
(2.95331e-35 2.78213e-35 0)
(-1.50798e-34 4.92977e-33 0)
(-1.5007e-35 6.21534e-34 0)
(-2.08629e-36 5.09235e-35 0)
(-1.65632e-37 4.68284e-36 0)
(-2.35001e-32 3.75645e-32 0)
(-2.55787e-33 4.29691e-33 0)
(-3.37609e-34 3.18676e-34 0)
(-2.81677e-35 2.81328e-35 0)
(-3.69644e-31 1.62138e-31 0)
(-3.3955e-32 5.8467e-33 0)
(-4.42389e-33 2.58006e-35 0)
(-3.45976e-34 -2.50534e-35 0)
(4.73407e-31 2.71668e-30 0)
(4.51027e-32 1.16656e-31 0)
(5.93368e-33 3.58573e-33 0)
(4.72695e-34 2.7616e-35 0)
(1.22362e-30 -3.33177e-30 0)
(1.14234e-31 -1.54174e-31 0)
(1.49644e-32 -5.36755e-33 0)
(1.18071e-33 -1.19024e-34 0)
(-4.15856e-31 -6.27021e-30 0)
(-3.87966e-32 -2.83282e-31 0)
(-5.07634e-33 -9.47174e-33 0)
(-4.00199e-34 -1.64895e-34 0)
(-1.2421e-30 -2.93081e-31 0)
(-1.15808e-31 -2.15138e-32 0)
(-1.51549e-32 -1.22183e-33 0)
(-1.19458e-33 -8.23759e-35 0)
(4.41983e-31 2.81612e-30 0)
(4.1221e-32 1.1492e-31 0)
(5.38925e-33 3.10974e-33 0)
(4.24682e-34 -3.41563e-35 0)
(1.27073e-30 -3.51065e-30 0)
(1.18078e-31 -1.60007e-31 0)
(1.54474e-32 -5.4125e-33 0)
(1.21586e-33 -1.00212e-34 0)
(-8.67536e-31 -6.49154e-30 0)
(-8.0567e-32 -2.94121e-31 0)
(-1.05481e-32 -9.96225e-33 0)
(-8.30359e-34 -1.94132e-34 0)
(-8.96645e-31 2.86919e-30 0)
(-8.41746e-32 1.24452e-31 0)
(-1.10395e-32 3.98912e-33 0)
(-8.73383e-34 5.76966e-35 0)
(3.85291e-31 9.28942e-32 0)
(3.49726e-32 8.61671e-35 0)
(4.51102e-33 -3.49147e-34 0)
(3.49373e-34 -5.44216e-35 0)
(1.67929e-32 4.15278e-32 0)
(1.9519e-33 8.00362e-33 0)
(3.18841e-35 6.68738e-34 0)
(-5.04475e-36 7.98558e-35 0)
(-2.97105e-31 -2.90309e-31 0)
(-1.42416e-32 -1.52649e-32 0)
(-4.92043e-33 -5.80972e-34 0)
(-4.33397e-34 -1.50283e-35 0)
(-4.47778e-32 -3.53001e-30 0)
(-4.65687e-33 -1.68348e-31 0)
(-8.43842e-34 -6.254e-33 0)
(-7.79298e-35 -2.07876e-34 0)
(-4.73702e-31 -2.46219e-31 0)
(-4.4333e-32 -1.39281e-32 0)
(-5.85909e-33 -5.87041e-34 0)
(-4.64626e-34 -2.2686e-35 0)
(-3.20223e-32 -4.77578e-32 0)
(-3.50759e-33 -5.57409e-33 0)
(-4.76465e-34 -4.20248e-34 0)
(-4.03058e-35 -3.76797e-35 0)
(-3.71161e-33 -3.32094e-33 0)
(-4.1441e-34 -4.28005e-34 0)
(-6.27655e-35 -3.54748e-35 0)
(-5.52771e-36 -3.31419e-36 0)
(5.1235e-36 -7.44893e-34 0)
(5.49095e-37 -1.10442e-34 0)
(4.34183e-38 -9.66087e-36 0)
(2.1706e-39 -9.60029e-37 0)
(3.88444e-33 -3.26072e-33 0)
(4.30815e-34 -4.06993e-34 0)
(6.46939e-35 -3.31956e-35 0)
(5.65946e-36 -3.03519e-36 0)
(3.12257e-32 -4.91697e-32 0)
(3.40127e-33 -5.61266e-33 0)
(4.49664e-34 -4.15577e-34 0)
(3.7555e-35 -3.66376e-35 0)
(4.874e-31 -2.14064e-31 0)
(4.47776e-32 -7.75059e-33 0)
(5.83415e-33 -3.7379e-35 0)
(4.56298e-34 3.27201e-35 0)
(-6.19465e-31 -3.58202e-30 0)
(-5.9028e-32 -1.53829e-31 0)
(-7.7665e-33 -4.72821e-33 0)
(-6.18777e-34 -3.63416e-35 0)
(-1.61223e-30 4.35944e-30 0)
(-1.50586e-31 2.01997e-31 0)
(-1.97354e-32 7.05245e-33 0)
(-1.55774e-33 1.58795e-34 0)
(5.10322e-31 8.28046e-30 0)
(4.70871e-32 3.77686e-31 0)
(6.15601e-33 1.28693e-32 0)
(4.83057e-34 2.55166e-34 0)
(1.11163e-30 6.12861e-31 0)
(1.04333e-31 3.65686e-32 0)
(1.36808e-32 1.65144e-33 0)
(1.08214e-33 7.41095e-35 0)
(7.20262e-32 1.20335e-31 0)
(7.90917e-33 1.33819e-32 0)
(1.06965e-33 9.85367e-34 0)
(9.04968e-35 8.57232e-35 0)
(2.05804e-30 -8.55777e-42 0)
(3.30815e-29 -6.53236e-42 0)
(3.13725e-29 1.4844e-41 0)
(-3.13447e-29 1.47568e-41 0)
(-3.2721e-29 -7.13055e-42 0)
(2.49672e-32 -1.53638e-41 0)
(3.30839e-29 -7.80211e-42 0)
(3.34167e-29 7.04939e-42 0)
(2.06913e-30 7.72412e-42 0)
(3.60086e-31 6.75414e-43 0)
(2.49506e-32 8.84045e-44 0)
(2.66463e-33 5.6514e-45 0)
(-1.65111e-34 -1.37407e-44 0)
(-5.19307e-33 -2.68789e-43 0)
(-4.72241e-32 -5.05748e-42 0)
(-6.95384e-31 -8.08044e-41 0)
(-3.78065e-30 -1.21515e-39 0)
(-6.47862e-29 -6.28821e-39 0)
(-3.30812e-29 3.72814e-37 0)
(3.13698e-29 2.50079e-35 0)
(3.47952e-29 9.03747e-34 0)
(3.37734e-29 2.43179e-32 0)
(2.45165e-30 4.41054e-31 0)
(2.43781e-30 2.43182e-32 0)
(3.34668e-29 9.28382e-34 0)
(3.3444e-29 9.03747e-34 0)
(2.06884e-30 2.34145e-32 0)
(3.63713e-31 4.16736e-31 0)
(2.87305e-32 -4.16736e-31 0)
(4.92592e-33 -2.34137e-32 0)
(4.97689e-32 -8.53104e-34 0)
(7.18415e-31 9.01809e-34 0)
(4.12716e-30 2.49288e-32 0)
(6.65673e-29 4.52159e-31 0)
(6.54781e-29 2.58325e-32 0)
(-2.58785e-29 2.52439e-32 0)
(3.00184e-29 4.41055e-31 0)
(-2.01964e-30 2.3438e-32 0)
(-6.30758e-29 -2.25465e-32 0)
(-3.68692e-30 -4.16814e-31 0)
(1.42425e-31 -2.73946e-31 0)
(1.64183e-30 -2.35367e-31 0)
(1.5239e-30 5.33471e-31 0)
(-1.52167e-30 5.3114e-31 0)
(-1.61624e-30 -2.57134e-31 0)
(2.00514e-33 -5.5051e-31 0)
(1.64203e-30 -2.78678e-31 0)
(1.6654e-30 2.5465e-31 0)
(1.43495e-31 2.76336e-31 0)
(2.55607e-32 2.16987e-32 0)
(2.00366e-33 2.49726e-33 0)
(2.17652e-34 1.70457e-34 0)
(-1.43481e-35 4.12437e-35 0)
(-4.23504e-34 3.24434e-34 0)
(-3.78859e-33 4.82638e-33 0)
(-4.91317e-32 4.09132e-32 0)
(-2.61632e-31 5.31126e-31 0)
(-3.18906e-30 2.35265e-31 0)
(-1.64181e-30 -7.93115e-31 0)
(1.52366e-30 -5.72388e-31 0)
(1.75989e-30 -2.41216e-32 0)
(1.68732e-30 2.7325e-31 0)
(1.70855e-31 2.81663e-31 0)
(1.73111e-31 -2.52753e-31 0)
(1.66965e-30 -2.54517e-31 0)
(1.6674e-30 2.57406e-31 0)
(1.40375e-31 2.78314e-31 0)
(2.92145e-32 4.45258e-32 0)
(5.67043e-33 -2.03439e-32 0)
(-2.69979e-33 -1.96306e-33 0)
(3.73774e-33 -5.04193e-33 0)
(5.0668e-32 -4.23595e-32 0)
(2.8234e-31 -5.25891e-31 0)
(3.31274e-30 -4.50747e-32 0)
(3.24142e-30 7.77373e-31 0)
(-1.14705e-30 3.03383e-31 0)
(1.43118e-30 -1.50227e-31 0)
(-1.35938e-31 7.58868e-31 0)
(-3.06769e-30 1.90577e-32 0)
(-2.57214e-31 -4.77468e-31 0)
(6.96749e-33 -1.88069e-32 0)
(5.28837e-32 -1.57397e-32 0)
(4.83805e-32 3.64763e-32 0)
(-4.81227e-32 3.62868e-32 0)
(-5.03064e-32 -1.7475e-32 0)
(2.27659e-34 -3.78276e-32 0)
(5.29079e-32 -1.91916e-32 0)
(5.52256e-32 1.72722e-32 0)
(7.07175e-33 1.90012e-32 0)
(2.57019e-33 1.73009e-33 0)
(2.2744e-34 2.03997e-34 0)
(2.87715e-35 1.48628e-35 0)
(-1.98728e-36 3.643e-36 0)
(-5.59313e-35 2.82606e-35 0)
(-4.25949e-34 3.93344e-34 0)
(-4.91488e-33 3.25735e-33 0)
(-1.15999e-32 3.62856e-32 0)
(-1.03574e-31 1.57301e-32 0)
(-5.28788e-32 -5.41562e-32 0)
(4.83497e-32 -3.95714e-32 0)
(5.74135e-32 -1.90157e-33 0)
(5.75376e-32 1.89238e-32 0)
(9.84239e-33 2.1664e-32 0)
(9.95592e-33 -1.69424e-32 0)
(5.57007e-32 -1.72328e-32 0)
(5.54634e-32 1.75248e-32 0)
(6.86771e-33 1.93119e-32 0)
(2.83119e-33 5.60654e-33 0)
(4.90069e-34 -3.67367e-33 0)
(-1.50407e-34 -3.09067e-34 0)
(4.01359e-34 -4.34197e-34 0)
(4.83337e-33 -3.3474e-33 0)
(1.03019e-32 -3.59092e-32 0)
(1.08724e-31 -8.26276e-33 0)
(1.12194e-31 5.28916e-32 0)
(-3.21676e-32 2.1372e-32 0)
(4.64289e-32 -6.72273e-33 0)
(-6.41472e-33 5.15939e-32 0)
(-9.92652e-32 1.40782e-33 0)
(-1.51102e-32 -3.40639e-32 0)
(2.61986e-34 -2.19189e-33 0)
(1.20751e-33 -1.82906e-33 0)
(1.08876e-33 4.25855e-33 0)
(-1.07204e-33 4.23309e-33 0)
(-1.05678e-33 -2.03863e-33 0)
(1.46745e-35 -4.4164e-33 0)
(1.2091e-33 -2.24548e-33 0)
(1.34295e-33 2.01132e-33 0)
(2.68785e-34 2.21989e-33 0)
(1.50188e-34 2.08731e-34 0)
(1.46586e-35 2.74836e-35 0)
(1.95133e-36 2.08889e-36 0)
(-1.41122e-37 5.40076e-37 0)
(-3.78881e-36 3.95974e-36 0)
(-2.73544e-35 5.29104e-35 0)
(-2.85856e-34 3.90151e-34 0)
(-3.89179e-34 4.23291e-33 0)
(-2.42951e-33 1.82782e-33 0)
(-1.20713e-33 -6.32481e-33 0)
(1.08651e-33 -4.62719e-33 0)
(1.32692e-33 -2.33767e-34 0)
(1.46451e-33 2.18875e-33 0)
(4.31806e-34 2.30286e-33 0)
(4.51365e-34 -1.98763e-33 0)
(1.37452e-33 -2.00798e-33 0)
(1.3576e-33 2.04352e-33 0)
(2.44893e-34 2.24301e-33 0)
(1.79013e-34 4.5169e-34 0)
(4.35938e-35 -2.15647e-34 0)
(-2.03249e-35 -2.27376e-35 0)
(2.42203e-35 -5.49748e-35 0)
(2.75275e-34 -3.80407e-34 0)
(2.65698e-34 -4.08225e-33 0)
(2.58961e-33 3.91539e-34 0)
(2.97766e-33 6.2771e-33 0)
(-5.80383e-34 2.51601e-33 0)
(1.11968e-33 -9.85346e-34 0)
(-2.14464e-34 6.0114e-33 0)
(-2.32059e-33 1.99303e-34 0)
(-6.96481e-34 -3.76009e-33 0)
(1.24734e-35 -1.34432e-34 0)
(2.21191e-36 -1.10724e-34 0)
(9.79029e-37 2.60885e-34 0)
(4.0364e-37 2.59154e-34 0)
(9.6589e-36 -1.24513e-34 0)
(1.20372e-36 -2.71157e-34 0)
(2.34543e-36 -1.3811e-34 0)
(1.28143e-35 1.22651e-34 0)
(1.30322e-35 1.3637e-34 0)
(1.18177e-35 1.37309e-35 0)
(1.20226e-36 1.87528e-36 0)
(1.702e-37 1.49065e-37 0)
(-1.25654e-38 3.92719e-38 0)
(-3.30334e-37 2.82198e-37 0)
(-2.23326e-36 3.60389e-36 0)
(-2.24454e-35 2.55989e-35 0)
(-1.44031e-35 2.59141e-34 0)
(-1.36009e-35 1.10634e-34 0)
(-2.17329e-36 -3.87283e-34 0)
(7.89219e-37 -2.85023e-34 0)
(3.54567e-36 -1.52862e-35 0)
(2.28494e-35 1.35144e-34 0)
(2.58932e-35 1.52204e-34 0)
(2.6961e-35 -1.20135e-34 0)
(1.5368e-35 -1.22256e-34 0)
(1.40562e-35 1.25008e-34 0)
(1.16092e-35 1.387e-34 0)
(1.36179e-35 3.90794e-35 0)
(3.01146e-36 -2.34853e-35 0)
(-1.12081e-36 -2.29727e-36 0)
(1.89199e-36 -3.84588e-36 0)
(2.08436e-35 -2.45035e-35 0)
(-3.82783e-36 -2.47146e-34 0)
(1.82134e-35 3.44484e-35 0)
(6.52339e-35 3.86431e-34 0)
(1.60141e-35 1.574e-34 0)
(1.16274e-35 -4.49679e-35 0)
(-9.26189e-36 3.67726e-34 0)
(-1.41706e-35 1.29047e-35 0)
(-4.27511e-35 -2.37651e-34 0)
(5.22986e-37 -1.09324e-35 0)
(-1.26951e-36 -9.0267e-36 0)
(-1.20231e-36 2.13411e-35 0)
(1.28452e-36 2.11892e-35 0)
(1.94011e-36 -1.01806e-35 0)
(7.1654e-38 -2.21816e-35 0)
(-1.25756e-36 -1.13123e-35 0)
(-6.6689e-37 1.00173e-35 0)
(6.06292e-37 1.11599e-35 0)
(6.71137e-37 1.1437e-36 0)
(7.15608e-38 1.64397e-37 0)
(1.0385e-38 1.33457e-38 0)
(-7.88189e-40 3.60635e-39 0)
(-2.01408e-38 2.5225e-38 0)
(-1.3267e-37 3.15672e-37 0)
(-1.27148e-36 2.12415e-36 0)
(-5.50966e-37 2.1188e-35 0)
(1.88062e-36 9.02361e-36 0)
(1.26802e-36 -3.16865e-35 0)
(-1.21414e-36 -2.3338e-35 0)
(-1.32672e-36 -1.28664e-36 0)
(-1.38202e-37 1.09974e-35 0)
(1.3393e-36 1.18841e-35 0)
(1.43986e-36 -9.85188e-36 0)
(-5.118e-37 -9.98944e-36 0)
(-5.95122e-37 1.02177e-35 0)
(4.89289e-37 1.13159e-35 0)
(8.14697e-37 2.69738e-36 0)
(2.15655e-37 -1.39034e-36 0)
(-9.89401e-38 -1.52185e-37 0)
(1.05993e-37 -3.22457e-37 0)
(1.15683e-36 -1.9252e-36 0)
(-6.46386e-37 -1.96278e-35 0)
(-1.74416e-36 9.03316e-36 0)
(1.2051e-36 3.21749e-35 0)
(1.75297e-36 1.29911e-35 0)
(-4.59781e-37 -4.16087e-36 0)
(-3.44762e-37 3.00491e-35 0)
(1.73855e-36 1.15627e-36 0)
(-2.30387e-36 -1.8905e-35 0)
(-6.87516e-37 -2.49806e-37 0)
(-1.7588e-37 -4.83052e-37 0)
(-1.17142e-37 1.22655e-36 0)
(1.17572e-37 1.21539e-36 0)
(1.6518e-37 -5.83049e-37 0)
(4.86231e-39 -1.27444e-36 0)
(-1.19523e-37 -6.5072e-37 0)
(-8.01136e-38 5.73079e-37 0)
(3.69937e-38 6.41424e-37 0)
(4.48852e-38 6.8414e-38 0)
(4.85705e-39 1.00525e-38 0)
(7.22991e-40 8.39331e-40 0)
(-5.54689e-41 2.29578e-40 0)
(-1.40186e-39 1.58501e-39 0)
(-8.98635e-39 1.928e-38 0)
(-8.49673e-38 1.26848e-37 0)
(-2.97643e-38 1.21518e-36 0)
(1.93208e-37 5.1381e-37 0)
(1.20253e-37 -1.81765e-36 0)
(-1.13104e-37 -1.3436e-36 0)
(-1.27583e-37 -7.65813e-38 0)
(-4.34634e-38 6.34724e-37 0)
(8.6062e-38 7.19139e-37 0)
(9.15057e-38 -5.59723e-37 0)
(-6.96825e-38 -5.70746e-37 0)
(-7.51445e-38 5.85932e-37 0)
(3.03976e-38 6.53646e-37 0)
(5.31983e-38 1.92126e-37 0)
(1.32045e-38 -1.13724e-37 0)
(-5.37255e-39 -1.19527e-38 0)
(6.83938e-39 -1.9951e-38 0)
(7.48851e-38 -1.11931e-37 0)
(-7.41137e-38 -1.10642e-36 0)
(-1.87443e-37 6.4512e-37 0)
(3.70055e-38 1.86305e-36 0)
(1.42338e-37 7.57892e-37 0)
(-5.86883e-38 -1.8879e-37 0)
(-2.08922e-38 1.72347e-36 0)
(1.78639e-37 6.85367e-38 0)
(-1.47265e-37 -1.11029e-36 0)
(-5.48504e-36 4.32357e-36 0)
(-4.09798e-37 3.18029e-37 0)
(-3.94881e-38 1.04614e-37 0)
(4.53734e-39 8.3203e-38 0)
(9.13831e-39 -3.90948e-38 0)
(2.58259e-40 -8.56865e-38 0)
(-6.84451e-39 -4.37857e-38 0)
(-4.74474e-39 3.84877e-38 0)
(1.91964e-39 4.31384e-38 0)
(2.4004e-39 4.65565e-39 0)
(2.66822e-40 7.00878e-40 0)
(4.02028e-41 5.92127e-41 0)
(-3.13982e-42 1.63985e-41 0)
(-7.79129e-41 1.11727e-40 0)
(-4.93171e-40 1.34358e-39 0)
(-4.53703e-39 8.61562e-39 0)
(-1.47563e-39 8.16733e-38 0)
(1.11893e-38 3.44688e-38 0)
(6.88443e-39 -1.2221e-37 0)
(-6.44673e-39 -9.04017e-38 0)
(-7.34367e-39 -5.24206e-39 0)
(-2.8906e-39 4.2543e-38 0)
(4.54942e-39 4.70423e-38 0)
(4.94355e-39 -3.7685e-38 0)
(-4.16325e-39 -3.83424e-38 0)
(-4.47774e-39 3.93677e-38 0)
(1.47422e-39 4.38796e-38 0)
(2.95112e-39 1.17815e-38 0)
(8.1936e-40 -6.4294e-39 0)
(-3.7888e-40 -7.18856e-40 0)
(3.53075e-40 -1.34209e-39 0)
(3.90763e-39 -7.19073e-39 0)
(-4.71492e-39 -7.21163e-38 0)
(-1.09223e-38 6.54439e-38 0)
(1.73662e-39 1.2745e-37 0)
(7.825e-39 5.14001e-38 0)
(-3.45863e-39 -1.37425e-38 0)
(-9.36924e-40 1.15774e-37 0)
(1.04358e-38 4.8439e-39 0)
(-7.96091e-39 -7.34039e-38 0)
(-6.69278e-35 -1.61137e-37 0)
(-4.62835e-36 -1.27319e-38 0)
(-3.74629e-37 3.75913e-39 0)
(-2.32975e-38 4.33124e-39 0)
(-1.07312e-39 -2.09674e-39 0)
(-7.85167e-41 -4.59097e-39 0)
(-4.12232e-40 -2.34765e-39 0)
(-2.84752e-40 2.05589e-39 0)
(1.10752e-40 2.31165e-39 0)
(1.39835e-40 2.56035e-40 0)
(1.56836e-41 3.90112e-41 0)
(2.39136e-42 3.35676e-42 0)
(-1.88052e-43 9.36071e-43 0)
(-4.6337e-42 6.33031e-42 0)
(-2.89596e-41 7.47257e-41 0)
(-2.6417e-40 4.73355e-40 0)
(-8.38852e-41 4.37022e-39 0)
(6.66784e-40 1.83524e-39 0)
(4.0897e-40 -6.54012e-39 0)
(-3.82426e-40 -4.84983e-39 0)
(-4.36511e-40 -2.87041e-40 0)
(-1.73949e-40 2.28763e-39 0)
(2.64061e-40 2.617e-39 0)
(2.84534e-40 -2.00208e-39 0)
(-2.50451e-40 -2.04602e-39 0)
(-2.68578e-40 2.10658e-39 0)
(8.71862e-41 2.36046e-39 0)
(1.69437e-40 7.2858e-40 0)
(4.53836e-41 -4.33774e-40 0)
(-1.9733e-41 -4.74087e-41 0)
(1.95893e-41 -7.49362e-41 0)
(2.20149e-40 -3.81836e-40 0)
(-3.44965e-40 -3.77456e-39 0)
(-6.51902e-40 4.11814e-39 0)
(1.54491e-40 6.90042e-39 0)
(4.69669e-40 2.78982e-39 0)
(-2.05998e-40 -6.04612e-40 0)
(-5.61002e-41 6.19627e-39 0)
(6.19332e-40 2.64239e-40 0)
(-4.58626e-40 -3.99846e-39 0)
(-2.99222e-36 -6.12262e-36 0)
(-2.38494e-37 -4.71307e-37 0)
(-2.17222e-38 -2.89095e-38 0)
(-1.47292e-39 -1.68292e-39 0)
(-8.17217e-41 -2.32677e-40 0)
(-5.89972e-42 -2.74203e-40 0)
(-2.07703e-41 -1.37291e-40 0)
(-1.4302e-41 1.19743e-40 0)
(5.48481e-42 1.34804e-40 0)
(6.97107e-42 1.50604e-41 0)
(7.9621e-43 2.32212e-42 0)
(1.2214e-43 2.01294e-43 0)
(-9.7225e-45 5.64642e-44 0)
(-2.36583e-43 3.79454e-43 0)
(-1.46944e-42 4.44659e-42 0)
(-1.31555e-41 2.78167e-41 0)
(-4.11254e-42 2.54727e-40 0)
(3.33905e-41 1.06805e-40 0)
(2.04724e-41 -3.81274e-40 0)
(-1.91203e-41 -2.82921e-40 0)
(-2.1902e-41 -1.69387e-41 0)
(-9.00339e-42 1.3314e-40 0)
(1.31398e-41 1.50119e-40 0)
(1.43874e-41 -1.16795e-40 0)
(-1.25333e-41 -1.19207e-40 0)
(-1.34871e-41 1.22748e-40 0)
(4.10685e-42 1.37508e-40 0)
(8.68078e-42 4.03849e-41 0)
(2.51052e-42 -2.3016e-41 0)
(-1.18749e-42 -2.60833e-42 0)
(9.28999e-43 -4.32476e-42 0)
(1.06677e-41 -2.11733e-41 0)
(-1.94285e-41 -2.12922e-40 0)
(-3.26495e-41 3.05961e-40 0)
(9.66765e-42 4.09221e-40 0)
(2.34338e-41 1.64046e-40 0)
(-1.02294e-41 -3.70209e-41 0)
(-2.49059e-42 3.60991e-40 0)
(3.11857e-41 1.58722e-41 0)
(-2.31904e-41 -2.30732e-40 0)
(2.77469e-35 -3.41453e-37 0)
(1.75332e-36 -1.27934e-38 0)
(1.18986e-37 -6.80215e-40 0)
(6.87693e-39 -4.204e-41 0)
(4.1182e-40 -9.70081e-42 0)
(2.1886e-41 -1.36002e-41 0)
(1.13455e-43 -6.84895e-42 0)
(-6.8665e-43 5.96009e-42 0)
(2.87723e-43 6.72498e-42 0)
(3.6293e-43 7.64939e-43 0)
(4.17258e-44 1.18675e-43 0)
(6.43473e-45 1.0416e-44 0)
(-5.14645e-46 2.93173e-45 0)
(-1.24618e-44 1.96291e-44 0)
(-7.69605e-44 2.27125e-43 0)
(-6.84379e-43 1.41214e-42 0)
(-2.1283e-43 1.26942e-41 0)
(1.73979e-42 5.30341e-42 0)
(1.06661e-42 -1.90018e-41 0)
(-9.95646e-43 -1.41256e-41 0)
(-1.14128e-42 -8.57134e-43 0)
(-4.6637e-43 6.66126e-42 0)
(6.83416e-43 7.70284e-42 0)
(7.44655e-43 -5.78795e-42 0)
(-6.5333e-43 -5.92845e-42 0)
(-7.02824e-43 6.1175e-42 0)
(2.16595e-43 6.88084e-42 0)
(4.48158e-43 2.22842e-42 0)
(1.27299e-43 -1.34547e-42 0)
(-5.84749e-44 -1.50505e-43 0)
(4.54984e-44 -2.20315e-43 0)
(5.35451e-43 -1.03115e-42 0)
(-1.18577e-42 -1.03313e-41 0)
(-1.70107e-42 1.73747e-41 0)
(6.74445e-43 2.06656e-41 0)
(1.24182e-42 8.27774e-42 0)
(-5.28874e-43 -1.5565e-42 0)
(-1.32469e-43 1.7994e-41 0)
(1.62079e-42 8.00054e-43 0)
(-1.20079e-42 -1.16581e-41 0)
(-3.2136e-36 2.05977e-36 0)
(-2.11502e-37 2.97515e-37 0)
(-1.47102e-38 1.96972e-38 0)
(-8.76857e-40 1.22677e-39 0)
(-5.34494e-41 6.58429e-41 0)
(-2.92158e-42 2.88892e-42 0)
(-2.09661e-43 -1.78106e-43 0)
(-4.27453e-44 3.18889e-43 0)
(1.27942e-44 3.50559e-43 0)
(1.68534e-44 4.01151e-44 0)
(1.96504e-45 6.2554e-45 0)
(3.03903e-46 5.5173e-46 0)
(-2.4522e-47 1.55622e-46 0)
(-5.8849e-46 1.0395e-45 0)
(-3.62577e-45 1.19676e-44 0)
(-3.18027e-44 7.39878e-44 0)
(-9.80371e-45 6.60693e-43 0)
(8.08944e-44 2.75663e-43 0)
(4.96051e-44 -9.89061e-43 0)
(-4.62687e-44 -7.35702e-43 0)
(-5.31698e-44 -4.50003e-44 0)
(-2.21599e-44 3.46472e-43 0)
(3.17554e-44 3.97375e-43 0)
(3.50348e-44 -3.01305e-43 0)
(-3.03156e-44 -3.08435e-43 0)
(-3.27151e-44 3.18311e-43 0)
(9.63678e-45 3.58092e-43 0)
(2.12876e-44 1.1302e-43 0)
(6.39047e-45 -6.67024e-44 0)
(-3.11195e-45 -7.62948e-45 0)
(1.98395e-45 -1.12881e-44 0)
(2.40942e-44 -5.07699e-44 0)
(-6.11613e-44 -5.1892e-43 0)
(-7.90803e-44 1.07268e-42 0)
(3.72147e-44 1.09417e-42 0)
(5.79275e-44 4.34583e-43 0)
(-2.43605e-44 -8.308e-44 0)
(-5.59098e-45 9.3617e-43 0)
(7.5693e-44 4.24288e-44 0)
(-5.6508e-44 -6.03238e-43 0)
(-5.83741e-35 -6.84068e-39 0)
(-3.71301e-36 -3.92707e-39 0)
(-2.54364e-37 -2.8479e-40 0)
(-1.4803e-38 -1.83462e-41 0)
(-8.91653e-40 -1.02597e-42 0)
(-4.78175e-41 -8.81543e-44 0)
(-2.5948e-42 -1.93776e-44 0)
(-1.30523e-43 1.4262e-44 0)
(-5.76346e-45 1.62847e-44 0)
(5.02925e-46 1.88971e-45 0)
(8.00377e-47 2.95551e-46 0)
(1.39059e-47 2.62958e-47 0)
(-1.19849e-48 7.42496e-48 0)
(-2.80612e-47 4.95414e-47 0)
(-1.72593e-46 5.65319e-46 0)
(-1.50532e-45 3.48682e-45 0)
(-4.62371e-46 3.07156e-44 0)
(3.82979e-45 1.27806e-44 0)
(2.3487e-45 -4.59821e-44 0)
(-2.18984e-45 -3.42505e-44 0)
(-2.51814e-45 -2.11427e-45 0)
(-1.04598e-45 1.61603e-44 0)
(1.50304e-45 1.8897e-44 0)
(1.65438e-45 -1.39448e-44 0)
(-1.43491e-45 -1.43165e-44 0)
(-1.54878e-45 1.47991e-44 0)
(4.59065e-46 1.67021e-44 0)
(1.00424e-45 5.66289e-45 0)
(2.99339e-46 -3.47883e-45 0)
(-1.44132e-46 -3.94939e-46 0)
(8.71469e-47 -5.29065e-46 0)
(1.09613e-45 -2.27637e-45 0)
(-3.28063e-45 -2.33749e-44 0)
(-3.74343e-45 5.56792e-44 0)
(2.14482e-45 5.16034e-44 0)
(2.78766e-45 2.0433e-44 0)
(-1.14384e-45 -3.31351e-45 0)
(-2.66615e-46 4.35311e-44 0)
(3.57872e-45 1.98536e-45 0)
(-2.66949e-45 -2.83537e-44 0)
(-1.99961e-36 -2.07925e-36 0)
(-1.33323e-37 -3.03556e-37 0)
(-9.27025e-39 -2.01483e-38 0)
(-5.56182e-40 -1.25779e-39 0)
(-3.39008e-41 -6.80208e-41 0)
(-1.85749e-42 -3.69654e-42 0)
(-1.01801e-43 -1.8453e-43 0)
(-5.20899e-45 -8.42392e-45 0)
(-2.29681e-46 3.49762e-46 0)
(2.27157e-47 7.06826e-47 0)
(3.55715e-48 1.32601e-47 0)
(6.12589e-49 1.22286e-48 0)
(-5.29299e-50 3.53876e-49 0)
(-1.23289e-48 2.37112e-48 0)
(-7.58446e-48 2.69612e-47 0)
(-6.54612e-47 1.66018e-46 0)
(-1.9972e-47 1.4543e-45 0)
(1.66577e-46 6.04437e-46 0)
(1.02178e-46 -2.17716e-45 0)
(-9.52107e-47 -1.62262e-45 0)
(-1.09705e-46 -1.00733e-46 0)
(-4.62767e-47 7.65103e-46 0)
(6.53601e-47 8.9106e-46 0)
(7.26646e-47 -6.60073e-46 0)
(-6.23016e-47 -6.77589e-46 0)
(-6.74236e-47 7.00545e-46 0)
(1.92526e-47 7.90987e-46 0)
(4.44419e-47 2.65236e-46 0)
(1.38078e-47 -1.61203e-46 0)
(-6.93663e-48 -1.85642e-47 0)
(3.49461e-48 -2.45643e-47 0)
(4.59046e-47 -1.01222e-46 0)
(-1.56345e-46 -1.06407e-45 0)
(-1.62796e-46 3.0082e-45 0)
(1.06692e-46 2.48552e-45 0)
(1.2203e-46 9.75813e-46 0)
(-4.92964e-47 -1.57644e-46 0)
(-1.06431e-47 2.06046e-45 0)
(1.56223e-46 9.51079e-47 0)
(-1.17298e-46 -1.33848e-45 0)
(2.91328e-35 3.47363e-38 0)
(1.85162e-36 -1.37477e-38 0)
(1.26773e-37 -1.08696e-39 0)
(7.37379e-39 -7.09597e-41 0)
(4.43993e-40 -3.94345e-42 0)
(2.38018e-41 -2.16608e-43 0)
(1.29011e-42 -1.0962e-44 0)
(6.41183e-44 -5.15994e-46 0)
(3.17857e-45 8.02435e-48 0)
(1.48716e-46 2.7777e-48 0)
(6.92212e-48 5.68138e-49 0)
(3.20391e-49 5.34455e-50 0)
(1.0205e-50 1.56114e-50 0)
(-5.34771e-50 1.04856e-49 0)
(-3.32395e-49 1.1848e-48 0)
(-2.85513e-48 7.2971e-48 0)
(-8.68325e-49 6.32622e-47 0)
(7.2658e-48 2.62369e-47 0)
(4.45736e-48 -9.47043e-47 0)
(-4.15196e-48 -7.06599e-47 0)
(-4.78745e-48 -4.41483e-48 0)
(-2.0179e-48 3.33746e-47 0)
(2.85069e-48 3.9469e-47 0)
(3.16747e-48 -2.86069e-47 0)
(-2.71648e-48 -2.94385e-47 0)
(-2.9412e-48 3.04748e-47 0)
(8.40249e-49 3.45e-47 0)
(1.93754e-48 1.22164e-47 0)
(6.01742e-49 -7.64356e-48 0)
(-3.01952e-49 -8.76536e-49 0)
(1.38769e-49 -1.06644e-48 0)
(1.91476e-48 -4.19157e-48 0)
(-7.56252e-48 -4.46048e-47 0)
(-7.10015e-48 1.44018e-46 0)
(5.3932e-48 1.09777e-46 0)
(5.40685e-48 4.28946e-47 0)
(-2.13234e-48 -5.94019e-48 0)
(-4.61807e-49 8.96443e-47 0)
(6.81075e-48 4.15044e-48 0)
(-5.11538e-48 -5.87489e-47 0)
(2.558e-36 1.79861e-36 0)
(1.6866e-37 1.21521e-37 0)
(1.168e-38 7.0414e-39 0)
(6.95884e-40 4.23379e-40 0)
(4.2291e-41 2.26855e-41 0)
(2.3062e-42 1.22923e-42 0)
(1.25978e-43 6.10819e-44 0)
(6.34214e-45 3.02759e-45 0)
(3.16437e-46 1.41645e-46 0)
(1.48675e-47 6.59285e-48 0)
(6.89525e-49 3.0562e-49 0)
(3.09817e-50 1.4327e-50 0)
(1.18597e-51 1.17298e-51 0)
(-2.16542e-51 4.62349e-51 0)
(-1.36821e-50 5.18904e-50 0)
(-1.16572e-49 3.19869e-49 0)
(-3.52605e-50 2.75977e-48 0)
(2.96682e-49 1.14342e-48 0)
(1.8204e-49 -4.13131e-48 0)
(-1.69487e-49 -3.08406e-48 0)
(-1.95756e-49 -1.93475e-49 0)
(-8.35552e-50 1.45648e-48 0)
(1.16389e-49 1.72031e-48 0)
(1.30396e-49 -1.24719e-48 0)
(-1.10757e-49 -1.28376e-48 0)
(-1.20192e-49 1.3292e-48 0)
(3.32536e-50 1.50576e-48 0)
(8.02534e-50 5.32243e-49 0)
(2.574e-50 -3.31813e-49 0)
(-1.33391e-50 -3.84157e-50 0)
(5.10276e-51 -4.54772e-50 0)
(7.48007e-50 -1.70072e-49 0)
(-3.35132e-49 -1.86176e-48 0)
(-2.89885e-49 7.00021e-48 0)
(2.46194e-49 4.87222e-48 0)
(2.22708e-49 1.88736e-48 0)
(-8.62842e-50 -2.55581e-49 0)
(-1.74249e-50 3.90978e-48 0)
(2.78964e-49 1.82322e-49 0)
(-2.10694e-49 -2.56032e-48 0)
(-1.43578e-38 3.15726e-37 0)
(-8.99298e-40 2.15805e-38 0)
(-6.15101e-41 1.28005e-39 0)
(-3.50818e-42 7.7578e-41 0)
(-2.09789e-43 4.22531e-42 0)
(-1.10311e-44 2.30568e-43 0)
(-5.92755e-46 1.16019e-44 0)
(-2.89616e-47 5.78577e-46 0)
(-1.42041e-48 2.71288e-47 0)
(-6.24191e-50 1.25416e-48 0)
(-2.64793e-51 5.5668e-50 0)
(-7.98769e-53 2.44171e-51 0)
(-9.18573e-54 1.24527e-52 0)
(-9.03235e-53 1.93894e-52 0)
(-5.57396e-52 2.13229e-51 0)
(-4.72807e-51 1.31696e-50 0)
(-1.42601e-51 1.12703e-49 0)
(1.20331e-50 4.66152e-50 0)
(7.38421e-51 -1.68705e-49 0)
(-6.8729e-51 -1.26053e-49 0)
(-7.944e-51 -7.94378e-51 0)
(-3.39433e-51 5.96241e-50 0)
(4.7206e-51 7.13082e-50 0)
(5.29227e-51 -5.07731e-50 0)
(-4.49011e-51 -5.23737e-50 0)
(-4.8759e-51 5.42825e-50 0)
(1.34372e-51 6.16303e-50 0)
(3.26018e-51 2.27393e-50 0)
(1.04959e-51 -1.44899e-50 0)
(-5.46409e-52 -1.67388e-51 0)
(1.83173e-52 -1.83901e-51 0)
(2.88271e-51 -6.5157e-51 0)
(-1.48555e-50 -7.27997e-50 0)
(-1.17564e-50 3.11275e-49 0)
(1.12426e-50 2.02162e-49 0)
(9.17257e-51 7.78428e-50 0)
(-3.46998e-51 -9.07221e-51 0)
(-6.95521e-52 1.59687e-49 0)
(1.13156e-50 7.45193e-51 0)
(-8.55558e-51 -1.05353e-49 0)
(-2.40918e-36 1.80757e-36 0)
(-1.57998e-37 1.21809e-37 0)
(-1.08703e-38 7.03289e-39 0)
(-6.45629e-40 4.2219e-40 0)
(-3.91047e-41 2.25656e-41 0)
(-2.12897e-42 1.22123e-42 0)
(-1.16112e-43 6.05733e-44 0)
(-5.84175e-45 2.99804e-45 0)
(-2.91271e-46 1.38674e-46 0)
(-1.36305e-47 6.34543e-48 0)
(-6.28078e-49 2.74986e-49 0)
(-2.74851e-50 1.17284e-50 0)
(-1.18015e-51 4.78981e-52 0)
(-5.19867e-53 2.68408e-53 0)
(-2.35301e-53 8.73615e-53 0)
(-1.81906e-52 5.36498e-52 0)
(-5.45977e-53 4.57173e-51 0)
(4.62774e-52 1.88922e-51 0)
(2.84032e-52 -6.84303e-51 0)
(-2.64261e-52 -5.11553e-51 0)
(-3.05882e-52 -3.2331e-52 0)
(-1.32087e-52 2.42023e-51 0)
(1.81541e-52 2.89652e-51 0)
(2.04961e-52 -2.05779e-51 0)
(-1.72463e-52 -2.12373e-51 0)
(-1.87655e-52 2.2016e-51 0)
(5.02706e-53 2.50161e-51 0)
(1.26911e-52 9.26863e-52 0)
(4.19272e-53 -5.90972e-52 0)
(-2.23897e-53 -6.87244e-53 0)
(6.11726e-54 -7.27053e-53 0)
(1.05226e-52 -2.42553e-52 0)
(-6.15416e-52 -2.8077e-51 0)
(-4.52092e-52 1.38462e-50 0)
(4.76004e-52 8.34459e-51 0)
(3.56481e-52 3.18474e-51 0)
(-1.32248e-52 -3.56287e-52 0)
(-2.4811e-53 6.47648e-51 0)
(4.3636e-52 3.03358e-52 0)
(-3.31534e-52 -4.27525e-51 0)
(-2.94325e-35 -2.29335e-36 0)
(-1.86126e-36 -1.73369e-37 0)
(-1.27171e-37 -1.03937e-38 0)
(-7.37148e-39 -6.3174e-40 0)
(-4.43161e-40 -3.40536e-41 0)
(-2.36981e-41 -1.84955e-42 0)
(-1.28291e-42 -9.21885e-44 0)
(-6.3644e-44 -4.57449e-45 0)
(-3.15057e-45 -2.12382e-46 0)
(-1.45745e-46 -9.73913e-48 0)
(-6.6697e-48 -4.23279e-49 0)
(-2.89035e-49 -1.80844e-50 0)
(-1.23266e-50 -7.38842e-52 0)
(-5.02555e-52 -2.92963e-53 0)
(-2.09143e-53 2.20188e-54 0)
(-7.67798e-54 2.07268e-53 0)
(-2.09691e-54 1.75842e-52 0)
(1.7572e-53 7.25638e-53 0)
(1.07869e-53 -2.63186e-52 0)
(-1.00333e-53 -1.96895e-52 0)
(-1.16223e-53 -1.2484e-53 0)
(-5.03047e-54 9.32918e-53 0)
(6.89404e-54 1.12823e-52 0)
(7.79551e-54 -7.89343e-53 0)
(-6.54552e-54 -8.1619e-53 0)
(-7.12803e-54 8.46796e-53 0)
(1.89553e-54 9.64067e-53 0)
(4.83391e-54 3.69863e-53 0)
(1.60713e-54 -2.39898e-53 0)
(-8.64855e-55 -2.7872e-54 0)
(1.96005e-55 -2.75104e-54 0)
(3.76468e-54 -8.5931e-54 0)
(-2.52755e-53 -1.02593e-52 0)
(-1.71662e-53 5.75118e-52 0)
(1.99734e-53 3.26302e-52 0)
(1.37454e-53 1.23665e-52 0)
(-4.97851e-54 -1.18755e-53 0)
(-9.18206e-55 2.4913e-52 0)
(1.6579e-53 1.16571e-53 0)
(-1.26166e-53 -1.65523e-52 0)
(4.04583e-35 -4.65668e-36 0)
(2.58759e-36 -4.80224e-37 0)
(1.77574e-37 -3.03924e-38 0)
(1.03725e-38 -1.87345e-39 0)
(6.25681e-40 -1.00955e-40 0)
(3.36444e-41 -5.47813e-42 0)
(1.82629e-42 -2.72241e-43 0)
(9.0979e-44 -1.34869e-44 0)
(4.51378e-45 -6.24579e-46 0)
(2.09485e-46 -2.85983e-47 0)
(9.6046e-48 -1.24034e-48 0)
(4.17294e-49 -5.29212e-50 0)
(1.78252e-50 -2.15841e-51 0)
(7.2806e-52 -8.63357e-53 0)
(2.91258e-53 -3.19654e-54 0)
(8.72701e-55 6.66487e-55 0)
(-3.2455e-56 6.67364e-54 0)
(6.39991e-55 2.75346e-54 0)
(3.92012e-55 -9.99454e-54 0)
(-3.64451e-55 -7.48062e-54 0)
(-4.22701e-55 -4.75263e-55 0)
(-1.84636e-55 3.5462e-54 0)
(2.50473e-55 4.29739e-54 0)
(2.84966e-55 -2.99463e-54 0)
(-2.37538e-55 -3.09865e-54 0)
(-2.59143e-55 3.21556e-54 0)
(6.71644e-56 3.66418e-54 0)
(1.77486e-55 1.41706e-54 0)
(6.0282e-56 -9.21981e-55 0)
(-3.31233e-56 -1.07638e-55 0)
(5.7827e-57 -1.01518e-55 0)
(1.28489e-55 -2.93693e-55 0)
(-9.83237e-55 -3.6739e-54 0)
(-6.23618e-55 2.36822e-53 0)
(7.90066e-55 1.26129e-53 0)
(5.05365e-55 4.73679e-54 0)
(-1.79231e-55 -4.27815e-55 0)
(-3.09795e-56 9.46033e-54 0)
(6.03797e-55 4.43163e-55 0)