/*--------------------------------*- C++ -*----------------------------------*\
| =========                 |                                                 |
| \\      /  F ield         | OpenFOAM: The Open Source CFD Toolbox           |
|  \\    /   O peration     | Version:  2.4.0                                 |
|   \\  /    A nd           | Web:      www.OpenFOAM.org                      |
|    \\/     M anipulation  |                                                 |
\*---------------------------------------------------------------------------*/
FoamFile
{
    version     2.0;
    format      ascii;
    class       volVectorField;
    location    "0.35";
    object      U;
}
// * * * * * * * * * * * * * * * * * * * * * * * * * * * * * * * * * * * * * //

dimensions      [0 1 -1 0 0 0 0];

internalField   nonuniform List<vector> 
1915
(
(1.27593e-43 -8.20195e-41 0)
(4.74925e-42 -7.24165e-42 0)
(1.37843e-42 -1.03189e-39 0)
(6.80927e-41 -9.03582e-41 0)
(1.57271e-41 -1.20094e-38 0)
(8.49261e-40 -1.04536e-39 0)
(1.61377e-40 -1.3795e-37 0)
(9.8017e-39 -1.18499e-38 0)
(1.5662e-39 -1.41705e-36 0)
(1.11608e-37 -1.2128e-37 0)
(1.22741e-38 -1.48341e-35 0)
(1.13251e-36 -1.24629e-36 0)
(8.61984e-38 -1.28832e-34 0)
(1.16929e-35 -1.08525e-35 0)
(2.44547e-37 -1.24083e-33 0)
(9.87454e-35 -1.01223e-34 0)
(-8.74595e-37 -8.25411e-33 0)
(9.16415e-34 -6.87937e-34 0)
(-2.74283e-35 -7.83064e-32 0)
(5.33535e-33 -6.0369e-33 0)
(-1.6598e-36 -4.40884e-37 0)
(-2.47438e-35 -3.9908e-36 0)
(-1.46991e-34 -5.38844e-35 0)
(-2.60532e-33 -4.67396e-35 0)
(-2.48161e-33 1.05111e-34 0)
(2.48161e-33 1.05111e-34 0)
(2.60532e-33 -4.67396e-35 0)
(1.46991e-34 -5.38844e-35 0)
(2.47506e-35 -3.99176e-36 0)
(1.62713e-36 -4.61616e-37 0)
(1.72286e-37 -3.05169e-38 0)
(1.1104e-38 -2.55871e-39 0)
(-1.31749e-44 -3.13533e-40 0)
(-1.11042e-38 -2.55875e-39 0)
(-1.72289e-37 -3.05176e-38 0)
(-1.62718e-36 -4.61627e-37 0)
(-2.47516e-35 -3.99191e-36 0)
(-1.47002e-34 -5.38869e-35 0)
(-2.60549e-33 -4.67703e-35 0)
(-2.48325e-33 1.04646e-34 0)
(2.45669e-33 1.01088e-34 0)
(2.45669e-33 -1.01088e-34 0)
(-2.48325e-33 -1.04646e-34 0)
(-2.60549e-33 4.67703e-35 0)
(-1.47002e-34 5.38869e-35 0)
(-2.47516e-35 3.99191e-36 0)
(-1.62724e-36 4.61616e-37 0)
(-1.73211e-37 3.03596e-38 0)
(-2.23719e-38 -1.0266e-41 0)
(-1.74066e-37 -3.0506e-38 0)
(-1.63748e-36 -4.64007e-37 0)
(-2.49126e-35 -4.01987e-36 0)
(-1.48456e-34 -5.43179e-35 0)
(-2.6286e-33 -5.02978e-35 0)
(-2.60532e-33 5.47845e-35 0)
(-4.23795e-41 1.08697e-34 0)
(2.60532e-33 5.47843e-35 0)
(2.6286e-33 -5.02998e-35 0)
(1.4829e-34 -5.43214e-35 0)
(2.40319e-35 -3.74046e-36 0)
(-2.66821e-37 2.05436e-37 0)
(-3.56296e-36 2.04458e-36 0)
(-2.24167e-35 2.76367e-35 0)
(-2.7548e-34 2.39646e-35 0)
(-2.56386e-34 -5.38932e-35 0)
(2.56386e-34 -5.38932e-35 0)
(2.7548e-34 2.39646e-35 0)
(2.24168e-35 2.76367e-35 0)
(3.56438e-36 2.04541e-36 0)
(2.67453e-37 2.3015e-37 0)
(2.79044e-38 1.50151e-38 0)
(1.92073e-39 1.23534e-39 0)
(-2.45509e-45 1.49601e-40 0)
(-1.92077e-39 1.23536e-39 0)
(-2.79051e-38 1.50154e-38 0)
(-2.67463e-37 2.30155e-37 0)
(-3.56454e-36 2.04549e-36 0)
(-2.24187e-35 2.7638e-35 0)
(-2.75508e-34 2.39797e-35 0)
(-2.56656e-34 -5.36618e-35 0)
(2.52794e-34 -5.18327e-35 0)
(2.52794e-34 5.18327e-35 0)
(-2.56656e-34 5.36618e-35 0)
(-2.75508e-34 -2.39797e-35 0)
(-2.24187e-35 -2.7638e-35 0)
(-3.56454e-36 -2.04549e-36 0)
(-2.67473e-37 -2.3015e-37 0)
(-2.80645e-38 -1.494e-38 0)
(-3.87093e-39 4.84186e-42 0)
(-2.82117e-38 1.501e-38 0)
(-2.69245e-37 2.31305e-37 0)
(-3.5905e-36 2.05927e-36 0)
(-2.26581e-35 2.7853e-35 0)
(-2.78803e-34 2.57937e-35 0)
(-2.7548e-34 -2.80856e-35 0)
(-8.79364e-42 -5.57362e-35 0)
(2.7548e-34 -2.80855e-35 0)
(2.78802e-34 2.57944e-35 0)
(2.26276e-35 2.78465e-35 0)
(3.40133e-36 1.65072e-36 0)
(-4.98046e-38 3.2911e-38 0)
(-5.59491e-37 3.29435e-37 0)
(-2.14966e-36 3.71421e-36 0)
(-1.98375e-35 3.12224e-36 0)
(-1.82054e-35 -7.20604e-36 0)
(1.82054e-35 -7.20604e-36 0)
(1.98375e-35 3.12224e-36 0)
(2.14965e-36 3.71421e-36 0)
(5.59539e-37 3.29561e-37 0)
(4.73324e-38 3.71975e-38 0)
(5.70033e-39 2.61173e-39 0)
(4.14886e-40 2.15254e-40 0)
(-6.16738e-46 2.71738e-41 0)
(-4.14896e-40 2.15257e-40 0)
(-5.7005e-39 2.61178e-39 0)
(-4.73348e-38 3.71984e-38 0)
(-5.59575e-37 3.29574e-37 0)
(-2.15007e-36 3.71442e-36 0)
(-1.98433e-35 3.12486e-36 0)
(-1.82532e-35 -7.16863e-36 0)
(1.76401e-35 -6.87386e-36 0)
(1.76401e-35 6.87386e-36 0)
(-1.82532e-35 7.16863e-36 0)
(-1.98433e-35 -3.12486e-36 0)
(-2.15007e-36 -3.71442e-36 0)
(-5.59575e-37 -3.29574e-37 0)
(-4.73372e-38 -3.71975e-38 0)
(-5.73709e-39 -2.59809e-39 0)
(-8.36733e-40 8.8204e-43 0)
(-5.7708e-39 2.61079e-39 0)
(-4.7718e-38 3.73981e-38 0)
(-5.64856e-37 3.31971e-37 0)
(-2.19166e-36 3.74899e-36 0)
(-2.0355e-35 3.41701e-36 0)
(-1.98375e-35 -3.78661e-36 0)
(-7.93332e-43 -7.50324e-36 0)
(1.98375e-35 -3.7866e-36 0)
(2.0355e-35 3.41715e-36 0)
(2.19035e-36 3.74803e-36 0)
(5.58266e-37 2.65923e-37 0)
(-5.79587e-39 6.86019e-39 0)
(-5.74833e-38 6.16149e-38 0)
(-1.52705e-37 6.60741e-37 0)
(-1.08414e-36 5.51391e-37 0)
(-9.84164e-37 -1.28219e-36 0)
(9.84164e-37 -1.28219e-36 0)
(1.08414e-36 5.51391e-37 0)
(1.52702e-37 6.60741e-37 0)
(5.74768e-38 6.16552e-38 0)
(5.39677e-39 7.77137e-39 0)
(6.93041e-40 5.73259e-40 0)
(5.30695e-41 5.01115e-41 0)
(-8.71102e-47 6.51738e-42 0)
(-5.30709e-41 5.01124e-41 0)
(-6.93065e-40 5.73273e-40 0)
(-5.39709e-39 7.77161e-39 0)
(-5.74816e-38 6.16585e-38 0)
(-1.52756e-37 6.60791e-37 0)
(-1.08484e-36 5.51968e-37 0)
(-9.89614e-37 -1.27436e-36 0)
(9.25989e-37 -1.21995e-36 0)
(9.25989e-37 1.21995e-36 0)
(-9.89614e-37 1.27436e-36 0)
(-1.08484e-36 -5.51968e-37 0)
(-1.52756e-37 -6.60791e-37 0)
(-5.74816e-38 -6.16585e-38 0)
(-5.39741e-39 -7.77137e-39 0)
(-6.9787e-40 -5.69988e-40 0)
(-1.0708e-40 2.17787e-43 0)
(-7.02287e-40 5.73027e-40 0)
(-5.44602e-39 7.81798e-39 0)
(-5.8121e-38 6.21816e-38 0)
(-1.57455e-37 6.67986e-37 0)
(-1.13687e-36 6.05801e-37 0)
(-1.08414e-36 -6.75855e-37 0)
(-4.38701e-44 -1.33712e-36 0)
(1.08414e-36 -6.75854e-37 0)
(1.13687e-36 6.05808e-37 0)
(1.57533e-37 6.67635e-37 0)
(5.87025e-38 4.89418e-38 0)
(-7.11346e-40 8.36113e-40 0)
(-6.40393e-39 7.21598e-39 0)
(-1.02994e-38 7.21638e-38 0)
(-4.11856e-38 5.94229e-38 0)
(-3.67285e-38 -1.39842e-37 0)
(3.67285e-38 -1.39842e-37 0)
(4.11856e-38 5.94229e-38 0)
(1.02989e-38 7.2164e-38 0)
(6.40101e-39 7.22176e-39 0)
(6.41138e-40 9.52776e-40 0)
(8.84201e-41 7.37202e-41 0)
(6.98572e-42 6.60707e-42 0)
(-1.24333e-47 8.85171e-43 0)
(-6.98592e-42 6.60719e-42 0)
(-8.84234e-41 7.37221e-41 0)
(-6.41183e-40 9.52808e-40 0)
(-6.40166e-39 7.2222e-39 0)
(-1.0306e-38 7.21706e-38 0)
(-4.12746e-38 5.94971e-38 0)
(-3.73767e-38 -1.38883e-37 0)
(3.02385e-38 -1.32546e-37 0)
(3.02385e-38 1.32546e-37 0)
(-3.73767e-38 1.38883e-37 0)
(-4.12746e-38 -5.94971e-38 0)
(-1.0306e-38 -7.21706e-38 0)
(-6.40167e-39 -7.2222e-39 0)
(-6.41228e-40 -9.52776e-40 0)
(-8.90753e-41 -7.32758e-41 0)
(-1.41014e-41 2.99716e-44 0)
(-8.96734e-41 7.36881e-41 0)
(-6.47608e-40 9.58907e-40 0)
(-6.48301e-39 7.28931e-39 0)
(-1.0858e-38 7.30492e-38 0)
(-4.70274e-38 6.57595e-38 0)
(-4.11856e-38 -7.40148e-38 0)
(6.11569e-45 -1.46247e-37 0)
(4.11857e-38 -7.40147e-38 0)
(4.70306e-38 6.57591e-38 0)
(1.09019e-38 7.29966e-38 0)
(6.74499e-39 5.67212e-39 0)
(-7.19311e-41 1.07304e-40 0)
(-6.02648e-40 8.78282e-40 0)
(-6.74459e-40 8.53556e-39 0)
(-6.73147e-40 6.99541e-39 0)
(-5.45703e-40 -1.65435e-38 0)
(5.45702e-40 -1.65435e-38 0)
(6.73144e-40 6.99541e-39 0)
(6.74402e-40 8.5356e-39 0)
(6.0221e-40 8.79211e-40 0)
(6.3706e-41 1.22519e-40 0)
(9.13869e-42 9.75295e-42 0)
(7.44126e-43 8.9951e-43 0)
(-1.41465e-48 1.22671e-43 0)
(-7.44149e-43 8.99527e-43 0)
(-9.13906e-42 9.75322e-42 0)
(-6.37109e-41 1.22524e-40 0)
(-6.02281e-40 8.79272e-40 0)
(-6.75156e-40 8.5365e-39 0)
(-6.82354e-40 7.00523e-39 0)
(-6.10162e-40 -1.642e-38 0)
(-6.57173e-41 -1.56544e-38 0)
(-6.57173e-41 1.56544e-38 0)
(-6.10162e-40 1.642e-38 0)
(-6.82354e-40 -7.00523e-39 0)
(-6.75156e-40 -8.5365e-39 0)
(-6.02281e-40 -8.79272e-40 0)
(-6.37158e-41 -1.22519e-40 0)
(-9.20979e-42 -9.69136e-42 0)
(-1.50262e-42 4.21282e-45 0)
(-9.27457e-42 9.74844e-42 0)
(-6.43944e-41 1.23353e-40 0)
(-6.10666e-40 8.88125e-40 0)
(-7.29652e-40 8.6492e-39 0)
(-1.2201e-39 7.76102e-39 0)
(-6.73144e-40 -8.77346e-39 0)
(1.4706e-45 -1.7318e-38 0)
(6.73172e-40 -8.77347e-39 0)
(1.22058e-39 7.76074e-39 0)
(7.36041e-40 8.64087e-39 0)
(6.46982e-40 6.81413e-40 0)
(-6.79073e-42 1.2089e-41 0)
(-5.83563e-41 8.78341e-41 0)
(-5.05001e-41 8.26453e-40 0)
(8.51635e-41 6.72254e-40 0)
(8.29382e-41 -1.60102e-39 0)
(-8.29379e-41 -1.60102e-39 0)
(-8.51615e-41 6.72259e-40 0)
(5.05192e-41 8.26501e-40 0)
(5.82136e-41 8.84034e-41 0)
(6.33849e-42 1.27111e-41 0)
(9.39087e-43 1.04159e-42 0)
(7.7875e-44 9.77698e-44 0)
(-1.55105e-49 1.35867e-44 0)
(-7.78774e-44 9.77717e-44 0)
(-9.39126e-43 1.04162e-42 0)
(-6.33902e-42 1.27116e-41 0)
(-5.82211e-41 8.84102e-41 0)
(-5.05981e-41 8.26599e-40 0)
(8.42149e-41 6.73307e-40 0)
(7.65205e-41 -1.58821e-39 0)
(-1.42098e-40 -1.51157e-39 0)
(-1.42098e-40 1.51157e-39 0)
(7.65205e-41 1.58821e-39 0)
(8.42149e-41 -6.73307e-40 0)
(-5.05981e-41 -8.26599e-40 0)
(-5.82211e-41 -8.84102e-41 0)
(-6.33955e-42 -1.27111e-41 0)
(-9.46646e-43 -1.03477e-42 0)
(-1.57295e-43 4.70982e-46 0)
(-9.53524e-43 1.04109e-42 0)
(-6.41047e-42 1.28015e-41 0)
(-5.90813e-41 8.9354e-41 0)
(-5.599e-41 8.38262e-40 0)
(3.24187e-41 7.48902e-40 0)
(8.51615e-41 -8.51162e-40 0)
(2.43951e-46 -1.67862e-39 0)
(-8.51573e-41 -8.51164e-40 0)
(-3.23563e-41 7.48857e-40 0)
(5.68094e-41 8.37284e-40 0)
(6.36057e-41 6.79479e-41 0)
(1.17097e-41 2.9794e-41 0)
(-4.82673e-42 2.29252e-42 0)
(-3.49993e-42 8.05961e-41 0)
(1.23306e-41 6.57513e-41 0)
(1.15993e-41 -1.5729e-40 0)
(-1.15961e-41 -1.57287e-40 0)
(-1.22974e-41 6.58027e-41 0)
(3.87858e-42 8.11966e-41 0)
(5.06773e-42 8.85694e-42 0)
(5.6707e-43 1.30966e-42 0)
(8.56859e-44 1.09233e-43 0)
(7.23651e-45 1.04105e-44 0)
(-1.50011e-50 1.46354e-45 0)
(-7.23675e-45 1.04107e-44 0)
(-8.56897e-44 1.09237e-43 0)
(-5.6712e-43 1.30972e-42 0)
(-5.06843e-42 8.85768e-42 0)
(-3.88591e-42 8.12071e-41 0)
(1.2211e-41 6.59127e-41 0)
(1.10219e-41 -1.55966e-40 0)
(-1.67504e-41 -1.48319e-40 0)
(-1.67504e-41 1.48319e-40 0)
(1.10219e-41 1.55966e-40 0)
(1.2211e-41 -6.59127e-41 0)
(-3.88591e-42 -8.12071e-41 0)
(-5.06843e-42 -8.85767e-42 0)
(-5.67171e-43 -1.30966e-42 0)
(-8.6396e-44 -1.08498e-43 0)
(-1.46198e-44 5.11212e-47 0)
(-8.70413e-44 1.09179e-43 0)
(-5.73754e-43 1.31928e-42 0)
(-5.14679e-42 8.95649e-42 0)
(-4.36659e-42 8.24067e-41 0)
(7.71769e-42 7.34496e-41 0)
(1.22974e-41 -8.37365e-41 0)
(2.89618e-47 -1.65033e-40 0)
(-1.22969e-41 -8.37369e-41 0)
(-7.7111e-42 7.34432e-41 0)
(4.45062e-42 8.22949e-41 0)
(5.60278e-42 6.75416e-42 0)
(4.19466e-40 1.42929e-41 0)
(1.05137e-41 -6.85583e-41 0)
(5.63638e-42 8.99553e-43 0)
(1.6862e-42 5.3035e-42 0)
(1.18161e-42 -1.3812e-41 0)
(-1.14153e-42 -1.37873e-41 0)
(-1.22204e-42 5.74057e-42 0)
(3.15705e-43 7.11921e-42 0)
(4.36581e-43 7.95051e-43 0)
(4.96391e-44 1.19683e-43 0)
(7.61628e-45 1.01645e-44 0)
(6.5087e-46 9.78888e-46 0)
(-1.38387e-51 1.39281e-46 0)
(-6.50892e-46 9.78909e-46 0)
(-7.61663e-45 1.01649e-44 0)
(-4.96437e-44 1.19688e-43 0)
(-4.36645e-43 7.95121e-43 0)
(-3.16357e-43 7.12019e-42 0)
(1.2145e-42 5.75088e-42 0)
(1.09362e-42 -1.36651e-41 0)
(-1.58818e-42 -1.29805e-41 0)
(-1.58818e-42 1.29805e-41 0)
(1.09362e-42 1.36651e-41 0)
(1.2145e-42 -5.75088e-42 0)
(-3.16357e-43 -7.12019e-42 0)
(-4.36645e-43 -7.95121e-43 0)
(-4.96483e-44 -1.19683e-43 0)
(-7.68069e-45 -1.00946e-44 0)
(-1.31516e-45 4.89177e-48 0)
(-7.73916e-45 1.01593e-44 0)
(-5.024e-44 1.20587e-43 0)
(-4.43602e-43 8.04306e-43 0)
(-3.58315e-43 7.22964e-42 0)
(8.28219e-43 6.42527e-42 0)
(1.22218e-42 -7.35122e-42 0)
(3.13585e-48 -1.44798e-41 0)
(-1.22213e-42 -7.35126e-42 0)
(-8.27566e-43 6.42457e-42 0)
(3.66484e-43 7.21862e-42 0)
(4.87524e-43 6.03281e-43 0)
(1.17983e-38 5.87627e-39 0)
(8.84455e-40 -8.64487e-40 0)
(7.75905e-41 -7.69517e-41 0)
(5.21549e-42 -4.03133e-42 0)
(4.23744e-43 -1.44268e-42 0)
(-7.57348e-44 -1.2007e-42 0)
(-1.00687e-43 4.9258e-43 0)
(2.45805e-44 6.1349e-43 0)
(3.4781e-44 6.95065e-44 0)
(4.02194e-45 1.06077e-44 0)
(6.23339e-46 9.11396e-46 0)
(5.39149e-47 8.84307e-47 0)
(-1.05966e-52 1.26772e-47 0)
(-5.39165e-47 8.84327e-47 0)
(-6.23362e-46 9.11429e-46 0)
(-4.02219e-45 1.06083e-44 0)
(-3.47836e-44 6.95143e-44 0)
(-2.45794e-44 6.13609e-43 0)
(1.0112e-43 4.94144e-43 0)
(9.0866e-44 -1.17717e-42 0)
(-1.30349e-43 -1.11744e-42 0)
(-1.30349e-43 1.11744e-42 0)
(9.0866e-44 1.17717e-42 0)
(1.0112e-43 -4.94144e-43 0)
(-2.45794e-44 -6.13609e-43 0)
(-3.47836e-44 -6.95142e-44 0)
(-4.02258e-45 -1.06078e-44 0)
(-6.287e-46 -9.05032e-46 0)
(-1.08956e-46 4.46774e-49 0)
(-6.33568e-46 9.1092e-46 0)
(-4.07156e-45 1.06894e-44 0)
(-3.53523e-44 7.03372e-44 0)
(-2.79725e-44 6.23299e-43 0)
(7.04178e-44 5.52956e-43 0)
(1.01748e-43 -6.34077e-43 0)
(2.95356e-49 -1.24843e-42 0)
(-1.01744e-43 -6.34082e-43 0)
(-7.03601e-44 5.52884e-43 0)
(2.86799e-44 6.22259e-43 0)
(3.91362e-44 5.25377e-44 0)
(1.62447e-34 -3.34152e-31 0)
(5.74311e-32 -2.83044e-32 0)
(5.38682e-33 -6.76815e-30 0)
(-5.70642e-33 -4.03204e-31 0)
(1.08356e-31 8.19599e-31 0)
(-1.51613e-32 5.00237e-32 0)
(5.38541e-33 7.63418e-30 0)
(7.9935e-33 4.57198e-31 0)
(1.69775e-34 3.87869e-31 0)
(6.42773e-32 3.30803e-32 0)
(4.83219e-36 1.94655e-31 0)
(-3.87024e-33 1.70026e-32 0)
(1.40286e-35 8.04002e-31 0)
(-1.12187e-31 6.87739e-32 0)
(2.59571e-35 1.28578e-29 0)
(-2.09949e-31 8.0221e-31 0)
(8.16318e-37 2.50891e-29 0)
(-6.62506e-33 1.53127e-30 0)
(-2.59042e-35 1.36312e-29 0)
(2.09531e-31 8.48291e-31 0)
(1.19277e-31 7.15596e-32 0)
(8.74807e-33 1.14153e-32 0)
(9.29282e-34 8.43776e-34 0)
(5.86866e-35 8.73109e-35 0)
(4.58005e-36 1.97278e-35 0)
(-5.58333e-38 1.75725e-34 0)
(-4.2421e-36 2.84576e-33 0)
(-7.13331e-35 2.72485e-32 0)
(-6.90208e-34 4.3112e-31 0)
(-9.97935e-33 2.53722e-30 0)
(-9.35652e-33 4.55141e-29 0)
(9.35653e-33 4.55141e-29 0)
(9.97923e-33 2.53722e-30 0)
(6.75458e-34 4.31096e-31 0)
(-5.44e-34 2.70458e-32 0)
(-1.87011e-32 -1.50623e-34 0)
(-3.76446e-31 1.75268e-34 0)
(-1.87054e-32 3.01033e-33 0)
(-6.15332e-34 2.03503e-34 0)
(-1.47477e-35 2.36737e-35 0)
(-9.25776e-38 1.46305e-36 0)
(3.36496e-37 2.57281e-37 0)
(2.22138e-36 1.52488e-36 0)
(4.77333e-33 -1.70621e-33 0)
(6.41202e-34 -1.10203e-34 0)
(4.92952e-35 -8.73212e-36 0)
(4.63399e-36 -5.86291e-37 0)
(-4.99811e-34 -1.83342e-32 0)
(-3.82047e-35 -6.62934e-34 0)
(-1.91098e-36 -2.03983e-35 0)
(4.97743e-38 -5.78241e-37 0)
(-2.90045e-33 2.24555e-33 0)
(1.62293e-35 7.79372e-35 0)
(8.35589e-36 1.68931e-36 0)
(3.56127e-36 -4.08164e-39 0)
(7.2305e-34 2.08387e-32 0)
(1.24928e-34 7.52528e-34 0)
(1.10841e-35 2.26317e-35 0)
(1.27502e-36 5.97202e-37 0)
(5.6749e-33 1.88598e-33 0)
(7.56068e-34 8.40792e-35 0)
(5.93887e-35 3.79563e-36 0)
(5.57529e-36 1.82514e-37 0)
(-4.02977e-34 1.99255e-33 0)
(-5.74051e-35 1.50666e-34 0)
(-4.88557e-36 1.36128e-35 0)
(-4.72705e-37 9.68263e-37 0)
(-1.01258e-32 4.93855e-33 0)
(-1.34824e-33 2.79855e-34 0)
(-1.06752e-34 1.89965e-35 0)
(-9.98454e-36 1.19221e-36 0)
(-1.8658e-32 3.71448e-32 0)
(-2.47608e-33 1.35131e-33 0)
(-1.94601e-34 3.63653e-35 0)
(-1.81627e-35 5.91449e-37 0)
(-5.85344e-34 6.87573e-32 0)
(-7.75878e-35 2.39221e-33 0)
(-6.08058e-36 5.27133e-35 0)
(-5.67071e-37 -2.71008e-38 0)
(1.86151e-32 3.91382e-32 0)
(2.47032e-33 1.41659e-33 0)
(1.94123e-34 3.73412e-35 0)
(1.81178e-35 5.47844e-37 0)
(1.076e-32 5.04974e-33 0)
(1.43335e-33 2.81582e-34 0)
(1.13492e-34 1.87145e-35 0)
(1.06181e-35 1.16022e-36 0)
(9.07988e-34 1.33976e-33 0)
(1.26672e-34 1.01573e-34 0)
(1.07042e-35 9.16796e-36 0)
(1.02801e-36 6.52227e-37 0)
(9.83723e-35 1.11178e-34 0)
(1.51332e-35 9.2557e-36 0)
(1.32889e-36 8.78162e-37 0)
(1.33757e-37 6.54149e-38 0)
(6.5497e-36 1.3059e-35 0)
(1.05316e-36 1.15196e-36 0)
(9.59143e-38 1.15627e-37 0)
(9.88683e-39 8.90044e-39 0)
(-3.80577e-37 2.54388e-36 0)
(-2.56497e-38 3.52077e-37 0)
(-1.10516e-38 3.38637e-38 0)
(-9.94284e-40 3.32212e-39 0)
(-1.56265e-35 2.0379e-35 0)
(-1.89364e-36 3.17176e-36 0)
(-3.13787e-37 2.92037e-37 0)
(-2.95019e-38 2.97574e-38 0)
(-1.95895e-34 3.09156e-34 0)
(-2.34611e-35 4.59704e-35 0)
(-3.6936e-36 4.03857e-36 0)
(-3.40221e-37 4.01659e-37 0)
(-3.15106e-33 2.91053e-33 0)
(-3.53125e-34 3.7772e-34 0)
(-5.33977e-35 3.13662e-35 0)
(-4.70762e-36 2.931e-36 0)
(-2.84181e-32 4.05916e-32 0)
(-3.11551e-33 4.72553e-33 0)
(-4.25485e-34 3.56771e-34 0)
(-3.60381e-35 3.17885e-35 0)
(-4.01506e-31 2.33274e-31 0)
(-3.79087e-32 1.50404e-32 0)
(-4.97881e-33 7.48974e-34 0)
(-3.94991e-34 4.12938e-35 0)
(-3.76058e-31 3.00022e-30 0)
(-3.51247e-32 1.39017e-31 0)
(-4.60333e-33 4.85355e-33 0)
(-3.63348e-34 1.09282e-34 0)
(3.76058e-31 3.00022e-30 0)
(3.51246e-32 1.39017e-31 0)
(4.60332e-33 4.85357e-33 0)
(3.63347e-34 1.09284e-34 0)
(4.01506e-31 2.33275e-31 0)
(3.79085e-32 1.50421e-32 0)
(4.97865e-33 7.49182e-34 0)
(3.9497e-34 4.13248e-35 0)
(2.84036e-32 4.06165e-32 0)
(3.11186e-33 4.75299e-33 0)
(4.23399e-34 3.5995e-34 0)
(3.57898e-35 3.22432e-35 0)
(2.54163e-33 3.12478e-33 0)
(2.56698e-34 6.12986e-34 0)
(1.72493e-35 5.77332e-35 0)
(8.28814e-37 6.33607e-36 0)
(-1.83547e-32 3.47669e-33 0)
(-1.94257e-33 3.47855e-33 0)
(-3.66479e-34 3.3579e-34 0)
(-3.43537e-35 4.19654e-35 0)
(-3.74141e-31 2.03035e-35 0)
(-2.84756e-32 3.16481e-36 0)
(-5.20252e-33 2.92146e-37 0)
(-4.3246e-34 3.49016e-38 0)
(-1.85497e-32 -3.1659e-33 0)
(-1.96592e-33 -3.43231e-33 0)
(-3.70147e-34 -3.31714e-34 0)
(-3.46458e-35 -4.14845e-35 0)
(-6.09369e-34 -2.14149e-34 0)
(-9.64056e-35 -2.35231e-34 0)
(-3.60584e-35 -2.61654e-35 0)
(-3.18501e-36 -2.13115e-36 0)
(-1.45663e-35 -2.49319e-35 0)
(-3.41269e-36 -2.72455e-35 0)
(-5.96858e-37 -8.95175e-37 0)
(1.19922e-35 1.47711e-35 0)
(1.32503e-37 -1.23024e-36 0)
(2.51062e-36 1.25878e-36 0)
(1.79481e-35 3.32372e-35 0)
(1.56263e-34 2.31119e-34 0)
(3.47128e-36 1.83455e-36 0)
(3.96024e-35 2.07935e-35 0)
(2.81467e-34 2.48934e-34 0)
(2.69239e-33 1.90075e-33 0)
(2.48844e-35 2.20775e-35 0)
(3.01259e-34 2.40053e-34 0)
(2.48187e-33 3.04156e-33 0)
(2.71823e-32 2.3878e-32 0)
(3.08613e-37 -3.39364e-38 0)
(2.1762e-38 -8.52551e-40 0)
(1.2669e-39 -3.22885e-41 0)
(7.78006e-41 -1.48951e-42 0)
(4.19663e-42 -1.56711e-43 0)
(2.2519e-43 -7.34687e-44 0)
(5.64271e-45 2.81991e-44 0)
(1.96476e-45 3.55013e-44 0)
(2.0126e-45 4.08748e-45 0)
(2.32887e-46 6.36311e-46 0)
(3.61668e-47 5.54734e-47 0)
(3.14497e-48 5.45253e-48 0)
(9.06838e-53 7.90304e-49 0)
(-3.1427e-48 5.45272e-48 0)
(-3.61136e-47 5.54767e-47 0)
(-2.31655e-46 6.36372e-46 0)
(-1.98583e-45 4.08855e-45 0)
(-1.38818e-45 3.55199e-44 0)
(5.86837e-45 2.85151e-44 0)
(5.26784e-45 -6.81177e-44 0)
(-7.52461e-45 -6.46155e-44 0)
(-7.52461e-45 6.46155e-44 0)
(5.26784e-45 6.81177e-44 0)
(5.86837e-45 -2.85151e-44 0)
(-1.38818e-45 -3.55199e-44 0)
(-1.98584e-45 -4.08854e-45 0)
(-2.31678e-46 -6.36342e-46 0)
(-3.64255e-47 -5.50779e-47 0)
(-6.35126e-48 2.80713e-50 0)
(-3.67099e-47 5.54447e-47 0)
(-2.34532e-46 6.41367e-46 0)
(-2.01876e-45 4.13856e-45 0)
(-1.58339e-45 3.61004e-44 0)
(4.11767e-45 3.19615e-44 0)
(5.9048e-45 -3.67473e-44 0)
(1.90666e-50 -7.23125e-44 0)
(-5.9045e-45 -3.67476e-44 0)
(-4.11407e-45 3.19566e-44 0)
(1.62767e-45 3.60349e-44 0)
(2.25938e-45 3.06825e-45 0)
(1.32561e-38 -2.37179e-38 0)
(2.04916e-39 -1.29445e-39 0)
(1.69985e-40 -1.08095e-40 0)
(1.44549e-41 -7.12926e-42 0)
(9.60121e-43 -5.01942e-43 0)
(6.4432e-44 -3.27467e-44 0)
(3.49483e-45 -2.37473e-46 0)
(2.81053e-46 1.77169e-45 0)
(1.01402e-46 2.11464e-46 0)
(1.12075e-47 3.34504e-47 0)
(1.70045e-48 2.93953e-48 0)
(1.48206e-49 2.89087e-49 0)
(6.09875e-53 4.20264e-50 0)
(-1.46839e-49 2.89587e-49 0)
(-1.67167e-48 2.95067e-48 0)
(-1.06106e-47 3.36832e-47 0)
(-8.99157e-47 2.16269e-46 0)
(-6.24634e-47 1.86302e-45 0)
(2.66807e-46 1.49251e-45 0)
(2.3922e-46 -3.57149e-45 0)
(-3.41566e-46 -3.38624e-45 0)
(-3.41566e-46 3.38624e-45 0)
(2.3922e-46 3.57149e-45 0)
(2.66807e-46 -1.49251e-45 0)
(-6.24634e-47 -1.86302e-45 0)
(-8.99158e-47 -2.16269e-46 0)
(-1.06117e-47 -3.36816e-47 0)
(-1.68634e-48 -2.92945e-48 0)
(-2.96801e-49 1.48948e-51 0)
(-1.6997e-48 2.94897e-48 0)
(-1.0745e-47 3.39485e-47 0)
(-9.14385e-47 2.1893e-46 0)
(-7.13867e-47 1.89373e-45 0)
(1.87664e-46 1.67478e-45 0)
(2.68493e-46 -1.92798e-45 0)
(9.729e-52 -3.79341e-45 0)
(-2.68478e-46 -1.92799e-45 0)
(-1.87488e-46 1.67451e-45 0)
(7.35274e-47 1.89012e-45 0)
(1.02968e-46 1.62389e-46 0)
(3.18204e-37 -4.04065e-39 0)
(3.43133e-38 -2.87776e-40 0)
(2.40784e-39 -1.84522e-41 0)
(1.87673e-40 -9.95049e-43 0)
(1.16169e-41 -5.4423e-44 0)
(7.52717e-43 -2.85342e-45 0)
(4.21028e-44 -6.45287e-47 0)
(2.39532e-45 8.00199e-47 0)
(1.26901e-46 9.83903e-48 0)
(6.78178e-48 1.57649e-48 0)
(3.7706e-49 1.39886e-49 0)
(2.09529e-50 1.3824e-50 0)
(6.17351e-52 2.02147e-51 0)
(-6.9566e-51 1.38455e-50 0)
(-7.92132e-50 1.40412e-49 0)
(-5.02659e-49 1.58877e-48 0)
(-4.23316e-48 1.01219e-47 0)
(-2.93121e-48 8.61888e-47 0)
(1.25724e-47 6.88683e-47 0)
(1.12641e-47 -1.65164e-46 0)
(-1.60861e-47 -1.56504e-46 0)
(-1.60861e-47 1.56504e-46 0)
(1.12641e-47 1.65164e-46 0)
(1.25724e-47 -6.88683e-47 0)
(-2.93121e-48 -8.61888e-47 0)
(-4.23316e-48 -1.01219e-47 0)
(-5.02711e-49 -1.5887e-48 0)
(-7.99112e-50 -1.39391e-49 0)
(-1.41151e-50 7.17993e-53 0)
(-8.0546e-50 1.4033e-49 0)
(-5.09051e-49 1.60145e-48 0)
(-4.30529e-48 1.02485e-47 0)
(-3.35391e-48 8.76361e-47 0)
(8.84964e-48 7.73867e-47 0)
(1.26523e-47 -8.92516e-47 0)
(4.92054e-53 -1.75555e-46 0)
(-1.26516e-47 -8.92525e-47 0)
(-8.84096e-48 7.73726e-47 0)
(3.45854e-48 8.74593e-47 0)
(4.87536e-48 7.58156e-48 0)
(9.42869e-38 2.09375e-38 0)
(7.7044e-39 1.09387e-39 0)
(4.95158e-40 9.56538e-41 0)
(3.41654e-41 6.47708e-42 0)
(2.00917e-42 4.6329e-43 0)
(1.2171e-43 2.74217e-44 0)
(6.58498e-45 1.64627e-45 0)
(3.58843e-46 9.12869e-47 0)
(1.81506e-47 5.09214e-48 0)
(9.1608e-49 2.99439e-49 0)
(4.51643e-50 1.7433e-50 0)
(2.22478e-51 1.14211e-51 0)
(8.36031e-53 1.17807e-52 0)
(-3.04652e-52 6.61156e-52 0)
(-3.47552e-51 6.70915e-51 0)
(-2.19881e-50 7.56616e-50 0)
(-1.83547e-49 4.82432e-49 0)
(-1.26602e-49 4.08231e-48 0)
(5.45243e-49 3.25662e-48 0)
(4.88015e-49 -7.82066e-48 0)
(-6.97337e-49 -7.40784e-48 0)
(-6.97337e-49 7.40784e-48 0)
(4.88015e-49 7.82066e-48 0)
(5.45243e-49 -3.25662e-48 0)
(-1.26602e-49 -4.08231e-48 0)
(-1.83548e-49 -4.82432e-49 0)
(-2.19904e-50 -7.5658e-50 0)
(-3.50646e-51 -6.66039e-51 0)
(-6.23041e-52 3.41834e-54 0)
(-3.53451e-51 6.70521e-51 0)
(-2.22702e-50 7.62661e-50 0)
(-1.86711e-49 4.8848e-49 0)
(-1.45081e-49 4.15121e-48 0)
(3.84025e-49 3.66269e-48 0)
(5.4875e-49 -4.22815e-48 0)
(2.29286e-54 -8.31595e-48 0)
(-5.48716e-49 -4.22819e-48 0)
(-3.83632e-49 3.66198e-48 0)
(1.49768e-49 4.14254e-48 0)
(2.12279e-49 3.61653e-49 0)
(3.66281e-37 1.09281e-38 0)
(2.56625e-38 6.25815e-40 0)
(1.48553e-39 4.08709e-41 0)
(9.084e-41 2.34939e-42 0)
(4.87447e-42 1.39471e-43 0)
(2.67375e-43 7.44506e-45 0)
(1.33411e-44 3.99966e-46 0)
(6.67839e-46 1.99867e-47 0)
(3.11184e-47 9.95958e-49 0)
(1.43905e-48 4.83668e-50 0)
(6.29493e-50 2.34862e-51 0)
(2.71705e-51 1.18048e-52 0)
(1.1108e-52 8.06159e-54 0)
(-8.99864e-54 2.93637e-53 0)
(-1.51478e-52 2.96494e-52 0)
(-9.61123e-52 3.32406e-51 0)
(-7.98332e-51 2.11382e-50 0)
(-5.49314e-51 1.77308e-49 0)
(2.37136e-50 1.41143e-49 0)
(2.12111e-50 -3.39559e-49 0)
(-3.03208e-50 -3.21477e-49 0)
(-3.03208e-50 3.21477e-49 0)
(2.12111e-50 3.39559e-49 0)
(2.37136e-50 -1.41143e-49 0)
(-5.49314e-51 -1.77308e-49 0)
(-7.98332e-51 -2.11381e-50 0)
(-9.61229e-52 -3.32389e-51 0)
(-1.52996e-52 -2.94325e-52 0)
(-2.72495e-53 1.51704e-55 0)
(-1.54219e-52 2.96314e-52 0)
(-9.73471e-52 3.35079e-51 0)
(-8.1213e-51 2.14054e-50 0)
(-6.30118e-51 1.80334e-49 0)
(1.67064e-50 1.58926e-49 0)
(2.38666e-50 -1.83714e-49 0)
(1.04491e-55 -3.61265e-49 0)
(-2.38651e-50 -1.83716e-49 0)
(-1.66887e-50 1.58894e-49 0)
(6.50936e-51 1.79943e-49 0)
(9.2693e-51 1.58378e-50 0)
(-3.24402e-38 6.89505e-38 0)
(-2.29573e-39 3.95374e-39 0)
(-1.35816e-40 2.40111e-40 0)
(-8.31454e-42 1.28461e-41 0)
(-4.50407e-43 7.01437e-43 0)
(-2.46065e-44 3.48913e-44 0)
(-1.22998e-45 1.73878e-45 0)
(-6.11151e-47 8.07188e-47 0)
(-2.83704e-48 3.71486e-48 0)
(-1.29833e-49 1.61688e-49 0)
(-5.62501e-51 6.93564e-51 0)
(-2.39059e-52 2.84515e-52 0)
(-9.74869e-54 1.15638e-53 0)
(-9.44119e-55 1.71405e-54 0)
(-6.24336e-54 1.29886e-53 0)
(-3.9484e-53 1.45095e-52 0)
(-3.25721e-52 9.24428e-52 0)
(-2.23409e-52 7.71599e-51 0)
(9.67452e-52 6.13382e-51 0)
(8.64631e-52 -1.47729e-50 0)
(-1.23662e-51 -1.39818e-50 0)
(-1.23662e-51 1.39818e-50 0)
(8.64631e-52 1.47729e-50 0)
(9.67452e-52 -6.13382e-51 0)
(-2.23409e-52 -7.71599e-51 0)
(-3.25721e-52 -9.24428e-52 0)
(-3.94875e-53 -1.45087e-52 0)
(-6.28382e-54 -1.28776e-53 0)
(-1.12359e-54 6.60299e-57 0)
(-6.33421e-54 1.29645e-53 0)
(-3.99924e-53 1.46261e-52 0)
(-3.31386e-52 9.36124e-52 0)
(-2.56605e-52 7.84801e-51 0)
(6.81829e-52 6.9118e-51 0)
(9.73735e-52 -7.99556e-51 0)
(4.46898e-57 -1.57222e-50 0)
(-9.7367e-52 -7.99566e-51 0)
(-6.81087e-52 6.91032e-51 0)
(2.65273e-52 7.83057e-51 0)
(3.79471e-52 6.93415e-52 0)
(-6.57155e-37 7.96677e-38 0)
(-4.57985e-38 4.4701e-39 0)
(-2.64767e-39 2.6898e-40 0)
(-1.60932e-40 1.43159e-41 0)
(-8.60762e-42 7.7874e-43 0)
(-4.69104e-43 3.85971e-44 0)
(-2.33011e-44 1.91711e-45 0)
(-1.15854e-45 8.86912e-47 0)
(-5.36786e-47 4.06811e-48 0)
(-2.46403e-48 1.76379e-49 0)
(-1.06949e-49 7.5349e-51 0)
(-4.57145e-51 3.0734e-52 0)
(-1.86605e-52 1.23118e-53 0)
(-7.49796e-54 5.26179e-55 0)
(-5.40013e-55 5.52831e-55 0)
(-1.61329e-54 5.96089e-54 0)
(-1.31661e-53 3.79845e-53 0)
(-9.01127e-54 3.14908e-52 0)
(3.90993e-53 2.4989e-52 0)
(3.49243e-53 -6.02726e-52 0)
(-4.99671e-53 -5.70219e-52 0)
(-4.99671e-53 5.70219e-52 0)
(3.49243e-53 6.02726e-52 0)
(3.90993e-53 -2.4989e-52 0)
(-9.01126e-54 -3.14908e-52 0)
(-1.31657e-53 -3.79845e-53 0)
(-1.60259e-54 -5.95994e-54 0)
(-2.54284e-55 -5.31069e-55 0)
(-4.55394e-56 2.71995e-58 0)
(-2.5632e-55 5.34654e-55 0)
(-1.62305e-54 6.00829e-54 0)
(-1.33949e-53 3.84669e-53 0)
(-1.03592e-53 3.20329e-52 0)
(2.7561e-53 2.81858e-52 0)
(3.93536e-53 -3.2639e-52 0)
(1.864e-58 -6.41735e-52 0)
(-3.93509e-53 -3.26394e-52 0)
(-2.75303e-53 2.81796e-52 0)
(1.07144e-53 3.19599e-52 0)
(1.53861e-53 2.85086e-53 0)
(-1.19014e-36 -1.85142e-38 0)
(-8.28215e-38 -2.00488e-39 0)
(-4.77363e-39 -1.39079e-40 0)
(-2.89818e-40 -7.66371e-42 0)
(-1.54677e-41 -4.20852e-43 0)
(-8.42166e-43 -2.09411e-44 0)
(-4.17634e-44 -1.04154e-45 0)
(-2.07482e-45 -4.82607e-47 0)
(-9.60103e-47 -2.2152e-48 0)
(-4.40412e-48 -9.61469e-50 0)
(-1.90963e-49 -4.10948e-51 0)
(-8.15757e-51 -1.67742e-52 0)
(-3.32711e-52 -6.71924e-54 0)
(-1.3322e-53 -2.5672e-55 0)
(-5.22511e-55 1.1918e-56 0)
(-8.12596e-56 2.40862e-55 0)
(-5.06715e-55 1.54173e-54 0)
(-3.45436e-55 1.27303e-53 0)
(1.50255e-54 1.009e-53 0)
(1.34116e-54 -2.43598e-53 0)
(-1.91968e-54 -2.30397e-53 0)
(-1.91968e-54 2.30397e-53 0)
(1.34116e-54 2.43598e-53 0)
(1.50256e-54 -1.009e-53 0)
(-3.45411e-55 -1.27303e-53 0)
(-5.0601e-55 -1.54174e-54 0)
(-6.19265e-56 -2.41206e-55 0)
(-9.80471e-57 -2.1527e-56 0)
(-1.7604e-57 1.09471e-59 0)
(-9.88321e-57 2.16719e-56 0)
(-6.27179e-56 2.43159e-55 0)
(-5.14845e-55 1.5613e-54 0)
(-3.97521e-55 1.29497e-53 0)
(1.05943e-54 1.13883e-53 0)
(1.51236e-54 -1.3195e-53 0)
(7.39122e-60 -2.59431e-53 0)
(-1.51225e-54 -1.31952e-53 0)
(-1.05823e-54 1.13857e-53 0)
(4.11355e-55 1.29197e-53 0)
(5.9304e-55 1.15883e-54 0)
(-3.70949e-38 -1.16025e-37 0)
(-2.57995e-39 -8.39748e-39 0)
(-1.48526e-40 -5.41204e-40 0)
(-9.01323e-42 -2.92875e-41 0)
(-4.80622e-43 -1.60014e-42 0)
(-2.61582e-44 -7.94051e-44 0)
(-1.29634e-45 -3.94497e-45 0)
(-6.43813e-47 -1.82531e-46 0)
(-2.97764e-48 -8.37184e-48 0)
(-1.36548e-49 -3.62961e-49 0)
(-5.91825e-51 -1.55032e-50 0)
(-2.5275e-52 -6.32244e-52 0)
(-1.03049e-53 -2.53115e-53 0)
(-4.12527e-55 -9.74191e-55 0)
(-1.62417e-56 -3.59025e-56 0)
(-2.94945e-57 7.96292e-57 0)
(-1.91684e-56 5.95332e-56 0)
(-1.30461e-56 4.89349e-55 0)
(5.68453e-56 3.87272e-55 0)
(5.0714e-56 -9.36116e-55 0)
(-7.26122e-56 -8.8508e-55 0)
(-7.26122e-56 8.8508e-55 0)
(5.0714e-56 9.36116e-55 0)
(5.68454e-56 -3.87272e-55 0)
(-1.30454e-56 -4.8935e-55 0)
(-1.91466e-56 -5.95809e-56 0)
(-2.35114e-57 -9.30125e-57 0)
(-3.70838e-58 -8.32189e-58 0)
(-6.66464e-59 3.65013e-61 0)
(-3.73795e-58 8.37829e-58 0)
(-2.38111e-57 9.37657e-57 0)
(-1.94807e-56 6.03373e-56 0)
(-1.50252e-56 4.97807e-55 0)
(4.00861e-56 4.37464e-55 0)
(5.72162e-56 -5.07266e-55 0)
(2.88203e-61 -9.97303e-55 0)
(-5.72121e-56 -5.07273e-55 0)
(-4.004e-56 4.37362e-55 0)
(1.55532e-56 4.96632e-55 0)
(2.24977e-56 4.48393e-56 0)
(1.18712e-36 -2.50162e-38 0)
(8.261e-38 -2.4292e-39 0)
(4.76121e-39 -1.65755e-40 0)
(2.89061e-40 -9.09944e-42 0)
(1.54267e-41 -4.99206e-43 0)
(8.39922e-43 -2.4829e-44 0)
(4.1651e-44 -1.23473e-45 0)
(2.06921e-45 -5.72007e-47 0)
(9.57485e-47 -2.62529e-48 0)
(4.39205e-48 -1.13928e-49 0)
(1.90436e-49 -4.86902e-51 0)
(8.13496e-51 -1.98719e-52 0)
(3.31783e-52 -7.95959e-54 0)
(1.32838e-53 -3.06567e-55 0)
(5.11335e-55 -1.15345e-56 0)
(1.91991e-56 -6.98816e-59 0)
(7.71617e-60 2.24681e-57 0)
(-4.47376e-58 1.85169e-56 0)
(2.06409e-57 1.46398e-56 0)
(1.83955e-57 -3.54154e-56 0)
(-2.63485e-57 -3.34767e-56 0)
(-2.63478e-57 3.34768e-56 0)
(1.83955e-57 3.54175e-56 0)
(2.06315e-57 -1.46389e-56 0)
(-4.72485e-58 -1.85174e-56 0)
(-6.95039e-58 -2.2623e-57 0)
(-8.56539e-59 -3.51815e-58 0)
(-1.35325e-59 -2.98668e-59 0)
(-2.48993e-60 -1.65186e-60 0)
(-1.35216e-59 3.15364e-59 0)
(-8.67996e-59 3.54638e-58 0)
(-7.07158e-58 2.29087e-57 0)
(-5.44684e-58 1.88378e-56 0)
(1.45518e-57 1.65467e-56 0)
(2.07666e-57 -1.91956e-56 0)
(9.38369e-62 -3.77387e-56 0)
(-2.07653e-57 -1.91935e-56 0)
(-1.45358e-57 1.65422e-56 0)
(5.63985e-58 1.87923e-56 0)
(8.18774e-58 1.70414e-57 0)
(6.98922e-37 7.70129e-38 0)
(4.87171e-38 4.30857e-39 0)
(2.81655e-39 2.58958e-40 0)
(1.71213e-40 1.37688e-41 0)
(9.1578e-42 7.48569e-43 0)
(4.99115e-43 3.70754e-44 0)
(2.47921e-44 1.84065e-45 0)
(1.23271e-45 8.51022e-47 0)
(5.71152e-47 3.90171e-48 0)
(2.62181e-48 1.69069e-49 0)
(1.13797e-49 7.21925e-51 0)
(4.86416e-51 2.9429e-52 0)
(1.9855e-52 1.17788e-53 0)
(7.95384e-54 4.53236e-55 0)
(3.06387e-55 1.70895e-56 0)
(1.15572e-56 6.3409e-58 0)
(3.96665e-58 9.4589e-59 0)
(-8.93125e-61 6.6888e-58 0)
(7.45335e-59 5.45897e-58 0)
(6.50436e-59 -1.27397e-57 0)