/*--------------------------------*- C++ -*----------------------------------*\
| =========                 |                                                 |
| \\      /  F ield         | OpenFOAM: The Open Source CFD Toolbox           |
|  \\    /   O peration     | Version:  2.4.0                                 |
|   \\  /    A nd           | Web:      www.OpenFOAM.org                      |
|    \\/     M anipulation  |                                                 |
\*---------------------------------------------------------------------------*/
FoamFile
{
    version     2.0;
    format      ascii;
    class       surfaceScalarField;
    location    "0.65";
    object      phi;
}
// * * * * * * * * * * * * * * * * * * * * * * * * * * * * * * * * * * * * * //

dimensions      [0 3 -1 0 0 0 0];

internalField   nonuniform List<scalar> 
3782
(
-1.4436e-39
1.73773e-37
-1.69878e-39
2.73308e-38
-4.58659e-40
4.82098e-39
-1.78103e-39
5.72778e-40
-1.84105e-38
-2.66457e-40
-1.49716e-37
-1.85174e-38
-1.38689e-36
-4.46982e-37
-6.56494e-36
-7.75398e-36
-5.78092e-35
-1.724e-34
-2.94104e-34
-1.90699e-36
-1.82256e-34
4.89443e-35
-1.16531e-32
-7.14959e-36
1.18995e-32
-1.01838e-34
2.00013e-34
-5.06751e-36
3.03751e-34
5.06149e-35
6.56786e-35
5.99844e-36
6.54407e-35
-2.60376e-39
2.64536e-34
-5.60871e-36
-2.11637e-34
-4.89076e-35
1.28143e-32
7.42526e-35
-2.79737e-32
1.75635e-34
-5.93027e-34
-5.9286e-35
-9.90772e-34
-1.76865e-34
1.35968e-32
6.28679e-35
-2.95075e-32
1.78316e-34
-6.19931e-34
-1.21759e-34
1.45983e-32
-1.318e-34
-1.51882e-32
4.85863e-35
1.52088e-32
2.33319e-36
-1.61169e-32
-1.78879e-34
-3.3807e-34
-1.20347e-35
-4.07919e-34
-6.87002e-35
-8.00537e-35
-8.18042e-36
-9.33101e-36
-1.1988e-36
-8.90976e-36
-2.00139e-39
-7.82643e-35
1.18744e-36
-3.48219e-34
7.51715e-36
2.75685e-34
6.45291e-35
-1.68837e-32
-9.72728e-35
3.67947e-32
-2.32098e-34
1.1495e-33
6.94464e-35
1.03443e-33
1.63209e-34
1.86407e-35
1.4205e-36
-1.32059e-38
9.6064e-36
-1.06355e-37
7.22793e-35
-8.60617e-37
-5.11086e-36
3.43263e-34
2.12684e-37
-1.53402e-38
1.38477e-36
-1.23136e-37
9.38616e-36
-9.8898e-37
-5.83894e-36
4.21576e-35
3.50623e-38
-2.44921e-39
2.03234e-37
-1.96658e-38
1.18499e-36
-1.50123e-37
-8.42843e-37
3.69426e-36
3.81107e-39
4.33887e-40
2.05678e-38
-2.14931e-39
1.06937e-37
-2.39177e-38
-1.26769e-37
2.50234e-37
1.19884e-40
8.79596e-39
1.8651e-39
1.16222e-38
1.04002e-38
-2.05726e-40
-1.2917e-38
1.82193e-38
-1.19436e-38
5.86568e-38
-4.66945e-39
8.33424e-38
-1.13271e-39
1.60501e-38
1.46747e-39
8.95999e-40
-2.71289e-37
4.53112e-37
-7.29874e-38
6.60689e-37
-2.27056e-38
1.12731e-37
1.8995e-38
-3.98689e-39
-4.49937e-36
-5.4069e-37
-8.44228e-37
4.27553e-37
-1.82304e-37
7.83459e-38
1.41044e-38
-2.81284e-38
-9.24024e-36
-9.77328e-36
-6.86855e-36
-2.02319e-36
-1.3961e-36
-2.63096e-37
-3.5715e-38
-1.94356e-37
2.1464e-36
-4.49695e-35
4.28956e-37
-5.29876e-36
3.98173e-38
-4.78615e-37
-4.54658e-38
2.01396e-39
5.44422e-35
-3.30463e-34
8.96851e-36
-2.62795e-35
1.48264e-36
-1.5484e-36
-5.65731e-38
1.89357e-37
-8.09463e-36
-2.87745e-34
-1.53057e-36
-2.23086e-35
-2.67971e-37
-1.27986e-36
-4.29294e-38
-3.64283e-38
-1.12893e-34
3.08356e-34
-1.87411e-35
2.3996e-35
-3.13067e-36
1.38357e-36
4.7243e-38
-4.03591e-37
-5.79175e-36
3.38929e-34
-1.14195e-36
2.69462e-35
-2.01633e-37
1.58324e-36
5.65724e-38
-2.76965e-38
5.60773e-35
4.57853e-35
9.27557e-36
4.79099e-36
1.54503e-36
3.80252e-37
2.77025e-38
1.9863e-37
6.81847e-36
1.05169e-35
1.30685e-36
1.62313e-36
2.28166e-37
1.87508e-37
2.18668e-38
3.09875e-38
-1.22515e-39
1.03173e-35
1.55234e-39
1.563e-36
5.75457e-40
1.77253e-37
2.0369e-38
1.20487e-40
-6.3612e-36
3.90913e-35
-1.20455e-36
3.44319e-36
-2.06199e-37
2.00171e-37
4.33317e-39
-2.75876e-38
-5.39271e-35
3.17102e-34
-8.65147e-36
2.29267e-35
-1.42168e-36
1.12249e-36
5.68318e-39
-1.79927e-37
8.2717e-35
-1.19235e-34
1.41499e-35
-1.2222e-35
2.38843e-36
-9.57371e-37
-6.86796e-38
3.11797e-37
1.94665e-34
-1.14425e-33
3.22781e-35
-9.1226e-35
5.38728e-36
-5.43256e-36
-2.0871e-37
6.93922e-37
-6.56799e-35
-8.02032e-34
-1.08594e-35
-6.55755e-35
-1.80758e-36
-4.06878e-36
-1.81161e-37
-2.32234e-37
-1.9593e-34
2.22509e-34
-3.23844e-35
1.1842e-35
-5.39313e-36
1.40623e-37
-7.87248e-38
-6.93163e-37
6.96381e-35
-1.38522e-34
1.15034e-35
-1.48814e-35
1.91286e-36
-1.24144e-36
-9.95679e-38
2.45563e-37
1.97362e-34
-1.17355e-33
3.24405e-35
-9.30233e-35
5.39374e-36
-5.52308e-36
-2.12347e-37
6.91717e-37
-1.3477e-34
-4.60923e-34
-2.21591e-35
-3.81704e-35
-3.68968e-36
-2.37813e-36
-1.04538e-37
-4.73742e-37
-1.46271e-34
3.07413e-34
-2.44679e-35
2.14981e-35
-4.09664e-36
1.00805e-36
-8.01821e-41
-5.29718e-37
5.37577e-35
2.14332e-35
8.44387e-36
1.36636e-36
1.36932e-36
-3.99786e-40
-1.1802e-38
1.70767e-37
8.82327e-36
-5.24183e-35
1.69736e-36
-4.37001e-36
2.40057e-37
-2.38319e-37
1.02472e-39
2.71649e-38
6.26229e-35
-4.64919e-34
2.72135e-36
-3.85814e-35
9.51837e-38
-2.4553e-36
-1.22575e-37
-8.69485e-39
-7.46328e-36
-4.60726e-34
-1.37791e-36
-3.84292e-35
-2.89605e-37
-2.46941e-36
-1.27291e-37
-4.40031e-38
-7.58394e-35
-6.179e-35
-1.26329e-35
-6.65595e-36
-2.12558e-36
-5.5195e-37
-4.40316e-38
-2.75693e-37
-9.29125e-36
-1.27313e-35
-1.79018e-36
-1.96802e-36
-3.15488e-37
-2.27484e-37
-2.66997e-38
-4.31834e-38
-1.37534e-36
-1.67253e-36
-2.77118e-37
-2.95387e-37
-5.24209e-38
-3.82968e-38
-4.88058e-39
-7.52198e-39
-2.4981e-39
-1.58588e-36
-7.11424e-40
-2.73317e-37
-1.99114e-40
-3.47929e-38
-4.35019e-39
-3.64138e-41
1.35982e-36
-1.21759e-35
2.70957e-37
-1.81439e-36
5.06386e-38
-2.02303e-37
-2.29261e-38
7.18774e-39
8.52897e-36
-5.14241e-35
1.61841e-36
-4.51532e-36
2.77827e-37
-2.60319e-37
-5.20611e-39
3.72605e-38
7.11549e-35
-4.1829e-34
1.14184e-35
-3.02431e-35
1.8766e-36
-1.47985e-36
-7.27136e-39
2.37536e-37
-1.08369e-34
1.53863e-34
-1.85456e-35
1.59572e-35
-3.13131e-36
1.26745e-36
9.31384e-38
-4.08897e-37
-2.57294e-34
1.51244e-33
-4.27122e-35
1.21469e-34
-7.13466e-36
7.33309e-36
2.97736e-37
-9.19726e-37
7.67189e-35
1.10758e-33
1.24598e-35
9.09277e-35
2.06473e-36
5.62571e-36
2.44454e-37
2.63567e-37
1.81134e-34
1.57332e-34
3.02863e-35
1.71965e-35
5.07002e-36
1.44414e-36
1.15777e-37
6.55442e-37
2.12094e-35
4.10061e-36
7.24496e-37
9.94533e-38
4.64246e-34
-3.78649e-35
1.04429e-32
-2.88164e-35
7.75946e-36
7.26791e-35
-1.03746e-32
7.19721e-35
-9.85797e-35
-3.40995e-35
1.73586e-34
-7.65356e-35
1.07335e-32
-3.92938e-35
5.16115e-34
3.3318e-35
3.56896e-34
3.85797e-35
6.71541e-35
5.26944e-36
7.70996e-36
7.90046e-37
8.21114e-37
8.59341e-38
-1.83443e-36
2.70617e-38
-1.4439e-35
1.60164e-37
-1.26673e-34
1.49638e-36
-6.47531e-34
9.75725e-36
-6.81849e-34
7.19634e-35
-2.10085e-32
2.87449e-35
1.01102e-32
-1.07577e-34
3.32636e-34
-8.18859e-35
1.10303e-32
-5.81619e-36
6.42314e-34
4.08347e-35
7.21986e-34
4.00272e-35
5.92353e-34
-2.94894e-35
1.08076e-32
-3.30264e-35
5.24334e-34
3.44463e-35
3.58105e-34
4.22401e-35
6.84378e-35
7.46953e-36
9.84965e-36
-1.41945e-36
1.59721e-35
-3.65007e-36
1.33811e-34
-1.79042e-36
7.10463e-34
-1.00471e-35
9.94154e-34
-6.97681e-35
2.136e-32
7.44669e-35
1.10396e-33
1.05066e-34
-9.75274e-33
4.894e-35
2.01634e-32
-8.38378e-36
-2.08878e-32
1.02904e-34
-6.18624e-34
1.54978e-36
-5.96708e-35
2.72301e-34
-4.25119e-35
4.45218e-34
-3.21789e-35
1.11986e-36
8.15492e-35
-4.36331e-34
8.07375e-35
-2.28083e-34
-3.82168e-35
2.37933e-34
-8.59496e-35
4.80555e-34
-4.41524e-35
2.79784e-34
3.7319e-35
4.39188e-35
4.33325e-35
8.71449e-36
6.0225e-36
1.11232e-36
9.07871e-37
1.21232e-37
9.95249e-38
-2.72616e-37
3.14409e-38
-2.07846e-36
1.85438e-37
-1.63283e-35
1.71881e-36
-7.92557e-35
1.11469e-35
-5.16582e-34
8.07274e-35
-6.8865e-34
3.20958e-35
-2.85623e-35
-1.20685e-34
4.73699e-34
-9.20775e-35
5.16253e-34
-6.89926e-36
2.9558e-34
4.20726e-35
8.94829e-35
4.21433e-35
2.9033e-34
-3.6771e-35
4.90277e-34
-3.72432e-35
2.80532e-34
3.83679e-35
4.41649e-35
4.39363e-35
9.83174e-36
9.51751e-36
1.49429e-36
-2.59805e-36
1.84298e-36
-5.92414e-37
1.72097e-35
-1.83238e-36
8.67326e-35
-1.17226e-35
5.54467e-34
-8.21981e-35
9.49827e-34
-6.58468e-35
3.51511e-34
1.13591e-34
7.21962e-35
5.10999e-35
1.53711e-34
-1.16803e-35
-4.56402e-34
1.11765e-34
-4.80409e-34
5.11568e-36
-6.44255e-35
1.62181e-35
-5.34039e-36
2.49759e-35
-3.85757e-36
1.65554e-37
1.01959e-35
-2.38308e-35
1.00735e-35
-1.23172e-35
-4.73114e-36
1.36004e-35
-1.08226e-35
2.77296e-35
-5.58854e-36
1.71466e-35
4.59492e-36
3.84824e-36
5.46477e-36
1.1151e-36
8.71333e-37
1.64067e-37
1.37876e-37
1.98032e-38
1.60262e-38
-4.49118e-38
5.20045e-39
-3.03992e-37
2.97843e-38
-2.06814e-36
2.60167e-37
-6.60313e-36
1.6064e-36
-3.05789e-35
1.00718e-35
-3.92177e-35
3.84395e-36
-1.92063e-36
-1.50666e-35
2.68839e-35
-1.17101e-35
3.05482e-35
-9.98397e-37
1.91488e-35
5.29487e-36
7.92658e-36
5.44582e-36
1.85209e-35
-4.49027e-36
2.89916e-35
-4.57605e-36
1.72722e-35
4.76135e-36
3.8877e-36
5.57254e-36
1.25609e-36
1.50029e-36
2.2478e-37
-4.9285e-37
2.76087e-37
-1.05564e-37
2.12261e-36
-2.81697e-37
7.00482e-36
-1.68095e-36
3.32306e-35
-1.02879e-35
5.62109e-35
-4.69708e-36
2.33629e-35
1.40492e-35
5.81513e-36
6.63577e-36
8.0208e-36
-7.51435e-37
-2.6543e-35
1.38159e-35
-2.90544e-35
7.38248e-37
-7.86979e-36
7.01815e-37
-7.61653e-37
9.87379e-37
-5.42731e-37
1.68657e-38
1.45623e-36
-8.8246e-37
1.43657e-36
-4.34746e-37
-6.73874e-37
5.53476e-37
-1.54766e-36
1.14936e-36
-8.02227e-37
7.84317e-37
6.5191e-37
2.61382e-37
7.82347e-37
1.01576e-37
1.30697e-37
1.66898e-38
2.2256e-38
2.12918e-39
2.71501e-39
-4.86254e-39
9.18095e-40
-3.076e-38
5.02684e-39
-1.86688e-37
4.1877e-38
-4.23536e-37
2.39423e-37
-1.32064e-36
1.43628e-36
-1.5943e-36
5.40493e-37
-8.89189e-38
-2.15264e-36
1.07429e-36
-1.68115e-36
1.31465e-36
-1.51636e-37
9.61618e-37
7.50438e-37
5.48846e-37
7.48691e-37
9.15459e-37
-6.39519e-37
1.26588e-36
-6.49206e-37
7.948e-37
6.78501e-37
2.66125e-37
7.95764e-37
1.21395e-37
1.96345e-37
2.36516e-38
-4.36938e-38
2.50424e-38
-1.29308e-38
1.88022e-37
-4.4258e-38
4.37761e-37
-2.45369e-37
1.45981e-36
-1.44504e-36
2.46885e-36
-5.05375e-37
1.19249e-36
2.02451e-36
3.56064e-37
9.63011e-37
3.07503e-37
-1.10365e-37
-1.12955e-36
1.96823e-36
-1.34041e-36
1.2285e-37
-1.08507e-36
1.58994e-38
-7.55114e-38
1.08067e-38
-5.26981e-38
1.81853e-39
1.44437e-37
-2.73863e-40
1.42276e-37
3.87946e-39
-6.65497e-38
8.11597e-39
-1.53913e-37
2.00517e-38
-8.00721e-38
2.39935e-38
6.41252e-38
1.9147e-38
7.78857e-38
1.01432e-38
1.37912e-38
1.79681e-39
2.45904e-39
2.41134e-40
3.12909e-40
-5.53584e-40
1.08701e-40
-3.295e-39
5.77791e-40
-1.8516e-38
4.61485e-39
-2.84176e-38
2.51569e-38
-3.02578e-38
1.42241e-37
-2.38874e-38
5.24496e-38
-2.14463e-39
-2.13477e-37
1.27343e-38
-1.68018e-37
2.97317e-38
-1.60398e-38
4.15825e-38
7.46142e-38
4.10188e-38
7.60492e-38
3.72441e-38
-6.25025e-38
3.17943e-38
-6.37436e-38
2.52245e-38
6.71433e-38
1.96763e-38
7.95668e-38
1.21197e-38
2.20416e-38
2.56683e-39
-5.82627e-39
2.6937e-39
-1.61563e-39
1.81323e-38
-4.88728e-39
2.64231e-38
-2.54503e-38
3.46714e-38
-1.4174e-37
6.65526e-38
-4.38374e-38
5.44323e-38
2.01549e-37
2.25245e-38
9.78216e-38
3.73258e-39
-5.54555e-39
-2.56462e-38
1.94699e-37
-4.50512e-38
1.33775e-38
-1.06989e-37
-5.8754e-40
-7.54099e-39
-2.07355e-39
-5.44122e-39
1.63792e-40
1.51935e-38
2.97282e-39
1.49461e-38
1.95678e-39
-6.98624e-39
-9.17921e-40
-1.6197e-38
-1.53486e-39
-8.44896e-39
1.65998e-40
6.71236e-39
1.37884e-39
8.20257e-39
8.70824e-40
1.49385e-39
1.62659e-40
2.78037e-40
2.24525e-41
3.64562e-41
-5.17736e-41
1.29822e-41
-2.97358e-40
6.71502e-41
-1.58152e-39
5.20794e-40
-1.91175e-39
2.71366e-39
9.19894e-40
1.49415e-38
2.58073e-39
5.45646e-39
6.5956e-41
-2.24571e-38
-2.15506e-39
-1.77275e-38
-9.81953e-40
-1.74973e-39
1.65019e-39
7.81584e-39
3.01768e-39
7.90508e-39
1.33433e-39
-6.54586e-39
-5.19009e-40
-6.66996e-39
2.66471e-40
7.05328e-39
1.43097e-39
8.37811e-39
1.07721e-39
2.2898e-39
2.36432e-40
-5.2195e-40
2.25904e-40
-1.66552e-40
1.51594e-39
-5.41439e-40
1.58416e-39
-2.68003e-39
-9.08508e-40
-1.45958e-38
-4.37164e-40
-2.86992e-39
2.39438e-39
2.14649e-38
1.4391e-39
1.04413e-38
-5.20551e-40
-4.90846e-40
8.10217e-40
2.04627e-38
-8.32694e-40
1.53059e-39
-1.10819e-38
-7.4363e-40
1.75637e-39
-3.74898e-40
-2.09811e-40
6.51754e-42
1.36667e-39
3.80637e-40
1.3206e-39
2.37827e-40
-6.15066e-40
-1.44622e-40
-1.43199e-39
-2.63661e-40
-7.48837e-40
-5.94211e-41
5.89507e-40
1.12253e-40
7.25715e-40
7.78116e-41
1.36565e-40
1.49653e-41
2.61728e-41
2.1106e-42
3.52406e-42
-4.88172e-42
1.27753e-42
-2.72926e-41
6.47872e-42
-1.40899e-40
4.89391e-41
-1.49039e-40
2.47351e-40
2.19515e-40
1.31777e-39
4.10074e-40
4.75235e-40
1.61354e-41
-1.98282e-39
-3.18526e-40
-1.57205e-39
-2.247e-40
-1.60183e-40
7.2907e-41
6.91172e-40
2.48046e-40
7.10018e-40
4.54061e-41
-5.71974e-40
-1.72537e-40
-5.84909e-40
-4.97091e-41
6.2218e-40
1.17129e-40
7.43697e-40
9.60734e-41
2.18016e-40
2.17873e-41
-5.56629e-41
2.05136e-41
-1.70064e-41
1.31652e-40
-5.06779e-41
1.0188e-40
-2.39882e-40
-2.43177e-40
-1.2673e-39
-2.67574e-40
-1.56174e-40
1.36406e-40
1.9122e-39
1.11325e-40
9.38622e-40
-7.82764e-41
-1.07422e-41
1.87183e-40
1.80544e-39
4.31843e-41
1.43155e-40
-9.7686e-40
-3.77825e-39
1.7769e-39
-4.50124e-40
1.61771e-40
-4.52128e-41
1.39881e-40
2.90343e-41
1.19952e-40
2.02952e-41
-5.49253e-41
-1.32473e-41
-1.28435e-40
-2.44639e-41
-6.72901e-41
-6.774e-42
5.26739e-41
8.65632e-42
6.51291e-41
6.24336e-42
1.24898e-41
1.23051e-42
2.45255e-42
1.75921e-43
3.36412e-43
-4.08037e-43
1.23765e-43
-2.24037e-42
6.17492e-43
-1.12767e-41
4.58021e-42
-1.1265e-41
2.25651e-41
2.12575e-41
1.18045e-40
3.75543e-41
4.22658e-41
1.59192e-42
-1.77793e-40
-2.8842e-41
-1.41271e-40
-2.17535e-41
-1.47052e-41
3.73545e-42
6.18444e-41
1.93104e-41
6.34191e-41
1.76682e-42
-5.10794e-41
-1.71206e-41
-5.22391e-41
-6.02592e-42
5.57407e-41
9.07755e-42
6.67723e-41
7.87283e-42
1.96331e-41
1.80751e-42
-4.72676e-42
1.58512e-42
-1.53865e-42
1.03059e-41
-4.66642e-42
6.50117e-42
-2.13293e-41
-2.42141e-41
-1.11052e-40
-2.70531e-41
-8.04804e-43
9.15789e-42
1.73763e-40
8.4479e-42
8.52624e-41
-6.8659e-42
-1.02707e-43
1.81633e-41
1.61812e-40
6.5268e-42
1.34818e-41
-8.68551e-41
-2.50424e-38
-4.14958e-39
-2.67894e-39
-4.19023e-40
-2.86602e-40
-2.81076e-41
-2.45252e-41
6.09972e-42
-8.42882e-43
-4.70296e-42
-1.32129e-42
-1.03584e-41
-2.06975e-42
-5.42534e-42
-6.00983e-43
4.21917e-42
6.82903e-43
5.24301e-42
5.00869e-43
1.02669e-42
1.00218e-43
2.05239e-43
1.44836e-44
2.86362e-44
-3.3661e-44
1.06562e-44
-1.82228e-43
5.24948e-44
-9.03236e-43
3.82845e-43
-8.81273e-43
1.85141e-42
1.8054e-42
9.48281e-42
3.13721e-42
3.36627e-42
1.36674e-43
-1.42937e-41
-2.4012e-42
-1.13901e-41
-1.8445e-42
-1.20936e-42
2.42102e-43
4.97891e-42
1.52782e-42
5.16342e-42
8.7716e-44
-4.07511e-42
-1.46124e-42
-4.17943e-42
-5.37319e-43
4.47924e-42
7.17765e-43
5.38894e-42
6.31896e-43
1.6594e-42
1.47198e-43
-4.30478e-43
1.2579e-43
-1.36155e-43
8.04496e-43
-3.87139e-43
3.99672e-43
-1.71243e-42
-2.132e-42
-8.75005e-42
-2.25988e-42
7.53239e-43
7.57075e-43
1.4127e-41
6.79444e-43
6.95604e-42
-5.63091e-43
1.58763e-43
1.53716e-42
1.30062e-41
6.07472e-43
1.12369e-42
-6.98068e-42
-4.28323e-40
-4.28944e-39
-9.41452e-41
-3.93074e-40
-1.52272e-41
-3.40462e-41
-1.60681e-42
-2.37756e-42
-7.34491e-44
-6.15791e-43
-1.01749e-43
-8.46754e-43
-1.55482e-43
-4.35177e-43
-4.59064e-44
3.35702e-43
5.01191e-44
4.18677e-43
3.71076e-44
8.31048e-44
7.53543e-45
1.68553e-44
1.0975e-45
2.3808e-45
-2.55556e-45
8.94118e-46
-1.3688e-44
4.35989e-45
-6.68119e-44
3.14145e-44
-6.43773e-44
1.4963e-43
1.35897e-43
7.56213e-43
2.34685e-43
2.66952e-43
1.03954e-44
-1.14061e-42
-1.79551e-43
-9.10484e-43
-1.39155e-43
-9.80796e-44
1.61474e-44
3.96976e-43
1.12705e-43
4.11968e-43
5.70495e-45
-3.2401e-43
-1.09858e-43
-3.32494e-43
-4.13021e-44
3.5724e-43
5.28348e-44
4.3064e-43
4.75248e-44
1.33738e-43
1.11229e-44
-3.40208e-44
8.91756e-45
-1.10655e-44
5.80694e-44
-3.12821e-44
2.26523e-44
-1.34706e-43
-1.6515e-43
-6.81366e-43
-1.65935e-43
1.4268e-43
5.95662e-44
1.14292e-42
5.07146e-44
5.61659e-43
-4.0911e-44
1.81617e-44
1.16084e-43
1.03758e-42
4.66095e-44
9.24725e-44
-5.5439e-43
2.02453e-38
7.17591e-40
1.92231e-39
3.4414e-40
1.77516e-40
3.79436e-41
1.51545e-41
3.44567e-42
1.26242e-42
2.4411e-43
9.16322e-44
-4.04701e-44
-3.86175e-45
-3.06152e-44
-2.84013e-45
2.48565e-44
3.67465e-45
3.09781e-44
2.70902e-45
6.23734e-45
5.55439e-46
1.27929e-45
8.13939e-47
1.82794e-46
-1.89773e-46
6.91607e-47
-1.00782e-45
3.3445e-46
-4.86753e-45
2.38233e-45
-4.65942e-45
1.12157e-44
9.95749e-45
5.58545e-44
1.71501e-44
1.9594e-44
7.67268e-46
-8.42921e-44
-1.31192e-44
-6.74247e-44
-1.01978e-44
-7.36002e-45
1.13422e-45
2.93768e-44
8.19258e-45
3.07473e-44
3.95076e-46
-2.38031e-44
-8.0363e-45
-2.44834e-44
-3.04154e-45
2.63944e-44
3.83931e-45
3.19201e-44
3.47561e-45
1.0245e-44
8.19129e-46
-2.74699e-45
6.33266e-46
-8.75204e-46
4.1154e-45
-2.3489e-45
1.0935e-45
-9.85176e-45
-1.25232e-44
-4.92128e-44
-1.17328e-44
1.57807e-44
4.79763e-45
8.55198e-44
3.78514e-45
4.20384e-44
-2.93645e-45
2.0922e-45
8.50059e-45
7.66763e-44
3.43277e-45
6.9986e-45
-4.09854e-44
-4.0598e-39
1.15518e-39
-4.01984e-40
3.43054e-40
-3.83803e-41
3.66505e-41
-3.38148e-42
3.28085e-42
-2.8752e-43
2.6077e-43
-2.35051e-44
1.57415e-44
-2.56194e-45
-8.65492e-46
-3.64652e-46
1.89636e-45
2.39156e-46
2.25602e-45
1.85197e-46
4.57992e-46
3.84822e-47
9.47275e-47
5.67059e-48
1.36499e-47
-1.32477e-47
5.19449e-48
-6.9877e-47
2.49544e-47
-3.33848e-46
1.76247e-46
-3.17698e-46
8.21959e-46
6.84401e-46
4.05164e-45
1.1765e-45
1.41503e-45
5.31168e-47
-6.11721e-45
-9.00328e-46
-4.90002e-45
-7.024e-46
-5.40378e-46
7.50734e-47
2.13182e-45
5.61984e-46
2.23552e-45
2.8226e-47
-1.72178e-45
-5.5105e-46
-1.7725e-45
-2.10572e-46
1.91484e-45
2.62962e-46
2.31987e-45
2.41488e-46
7.52504e-46
5.69843e-47
-2.01584e-46
4.13652e-47
-6.49047e-47
2.74649e-46
-1.7115e-46
4.07294e-47
-7.01606e-46
-8.86691e-46
-3.47897e-45
-7.79398e-46
1.58588e-45
3.56913e-46
6.29396e-45
2.64547e-46
3.08439e-45
-1.9632e-46
1.80137e-46
5.86156e-46
5.56371e-45
2.35436e-46
5.18462e-46
-2.96682e-45
-4.3654e-38
-1.1302e-39
-4.1871e-39
-3.60258e-40
-3.91059e-40
-3.88163e-41
-3.36973e-41
-3.48839e-42
-2.82043e-42
-2.80885e-43
-2.22121e-43
-2.19528e-44
-1.70187e-44
-1.74006e-45
-1.24974e-45
1.0639e-47
-7.04623e-47
1.46514e-46
6.58645e-48
3.11822e-47
2.22026e-48
6.57352e-48
3.60963e-49
9.57793e-49
-9.02936e-49
3.66948e-49
-4.72915e-48
1.7538e-48
-2.24134e-47
1.22864e-47
-2.12409e-47
5.68733e-47
4.59944e-47
2.77311e-46
7.8965e-47
9.63878e-47
3.58953e-48
-4.18847e-46
-6.04399e-47
-3.36034e-46
-4.72343e-47
-3.74041e-47
4.95664e-48
1.46165e-46
3.77019e-47
1.54322e-46
1.92408e-48
-1.17328e-46
-3.69661e-47
-1.21028e-46
-1.4185e-47
1.31096e-46
1.76329e-47
1.5923e-46
1.62922e-47
5.29626e-47
3.85502e-48
-1.47632e-47
2.67279e-48
-4.67722e-48
1.78928e-47
-1.17916e-47
2.09219e-49
-4.72379e-47
-6.15675e-47
-2.3218e-46
-5.03273e-47
1.36122e-46
2.62382e-47
4.36677e-46
1.82205e-47
2.13626e-46
-1.2931e-47
1.53317e-47
3.94172e-47
3.80969e-46
1.57987e-47
3.60882e-47
-2.03303e-46
-3.09072e-39
-9.73207e-40
-3.06837e-40
-3.83128e-40
-2.92615e-41
-4.20404e-41
-2.57779e-42
-3.79899e-42
-2.19082e-43
-3.06479e-43
-1.75254e-44
-2.36784e-44
-1.35789e-45
-1.73894e-45
-1.00698e-46
-1.14244e-46
-6.04096e-48
2.00617e-48
3.14128e-49
1.58989e-48
1.3616e-49
4.135e-49
2.29019e-50
6.34e-50
-5.85397e-50
2.50403e-50
-3.05112e-49
1.1974e-49
-1.43435e-48
8.33695e-49
-1.35347e-48
3.83618e-48
2.94538e-48
1.8554e-47
5.05037e-48
6.42567e-48
2.31116e-49
-2.80323e-47
-3.86715e-48
-2.25162e-47
-3.03042e-48
-2.52503e-48
3.09227e-49
9.7868e-48
2.41384e-48
1.03593e-47
1.28916e-49
-7.82897e-48
-2.36258e-48
-8.08406e-48
-9.13222e-49
8.77219e-48
1.12752e-48
1.06723e-47
1.05381e-48
3.58997e-48
2.49126e-49
-1.00897e-48
1.61709e-49
-3.20165e-49
1.11072e-48
-7.87836e-49
-1.38855e-49
-3.09026e-48
-4.06078e-48
-1.51042e-47
-3.10017e-48
1.11451e-47
1.81165e-48
2.96443e-47
1.19125e-48
1.44462e-47
-8.07286e-49
1.14954e-48
2.53196e-48
2.54959e-47
1.00828e-48
2.45019e-48
-1.35915e-47
2.14335e-38
1.9586e-39
2.05172e-39
1.35301e-40
1.91308e-40
1.00542e-41
1.64615e-41
7.92764e-43
1.37622e-42
6.08178e-44
1.08256e-43
4.59942e-45
8.26286e-45
3.31543e-46
6.00479e-46
2.38849e-47
4.24292e-47
2.23552e-48
2.91811e-48
2.41213e-49
1.99259e-49
3.55765e-50
1.3552e-50
4.67306e-51
-2.9462e-51
1.66836e-51
-1.91437e-50
7.79638e-51
-8.96377e-50
5.39483e-50
-8.43028e-50
2.47056e-49
1.84161e-49
1.18494e-48
3.15469e-49
4.08819e-49
1.45147e-50
-1.79074e-48
-2.4162e-49
-1.44018e-48
-1.89646e-49
-1.62596e-49
1.90327e-50
6.26056e-49
1.50818e-49
6.6645e-49
8.24004e-51
-4.98132e-49
-1.47497e-49
-5.15289e-49
-5.72479e-50
5.6036e-49
7.04069e-50
6.83178e-49
6.62178e-50
2.34483e-49
1.56543e-50
-6.80293e-50
9.61084e-51
-2.12988e-50
6.71643e-50
-5.03065e-50
-1.88596e-50
-1.93123e-49
-2.61942e-49
-9.37805e-49
-1.85554e-49
8.35051e-49
1.22558e-49
1.91986e-48
7.6358e-50
9.32722e-49
-4.94462e-50
8.41966e-50
1.58527e-49
1.62887e-48
6.29078e-50
1.58364e-49
-8.69222e-49
3.43322e-39
2.32908e-39
3.386e-40
2.13202e-40
3.21409e-41
1.82493e-41
2.81937e-42
1.52984e-42
2.38845e-43
1.20713e-43
1.90472e-44
9.25673e-45
1.46887e-45
6.75162e-46
1.07866e-46
4.78551e-47
7.67652e-48
3.28942e-48
5.26747e-49
2.23052e-49
3.53296e-50
1.54799e-50
2.31253e-51
1.11588e-51
-8.56445e-53
1.55052e-52
-1.15142e-51
4.96095e-52
-5.3834e-51
3.39722e-51
-5.0458e-51
1.5499e-50
1.10654e-50
7.38495e-50
1.89364e-50
2.54023e-50
8.75857e-52
-1.11628e-49
-1.45092e-50
-8.98646e-50
-1.14142e-50
-1.02021e-50
1.11825e-51
3.90562e-50
9.06313e-51
4.16957e-50
5.14684e-52
-3.09656e-50
-8.84837e-51
-3.20682e-50
-3.45567e-51
3.49273e-50
4.22637e-51
4.26472e-50
4.01368e-51
1.48038e-50
9.46604e-52
-4.34956e-51
5.40751e-52
-1.35762e-51
3.89967e-51
-3.11739e-51
-1.7234e-51
-1.17233e-50
-1.62023e-50
-5.66771e-50
-1.06723e-50
6.02799e-50
7.89069e-51
1.21411e-49
4.691e-51
5.8721e-50
-2.89946e-51
5.71561e-51
9.55348e-51
1.01539e-49
3.76764e-51
9.97358e-51
-5.41765e-50
1.78268e-41
2.14391e-39
2.12917e-42
1.9483e-40
2.3216e-43
1.65821e-41
2.26362e-44
1.38489e-42
2.07759e-45
1.08902e-43
1.76893e-46
8.32963e-45
1.4357e-47
6.06065e-46
1.1009e-48
4.28426e-47
8.13087e-50
2.90677e-48
5.87849e-51
1.91917e-49
4.24622e-52
1.22784e-50
3.08761e-53
7.69236e-52
-1.15929e-53
5.14768e-53
-6.82277e-53
3.26139e-53
-3.15593e-52
2.05756e-52
-2.94947e-52
9.35333e-52
6.48852e-52
4.42701e-51
1.1095e-51
1.51809e-51
5.15443e-53
-6.6929e-51
-8.50338e-52
-5.39361e-51
-6.6999e-52
-6.15384e-52
6.45671e-53
2.34498e-51
5.31307e-52
2.51577e-51
3.08955e-53
-1.85024e-51
-5.18187e-52
-1.9193e-51
-2.03208e-52
2.09417e-51
2.47601e-52
2.56169e-51
2.36619e-52
9.0431e-52
5.57022e-53
-2.72844e-52
2.97581e-53
-8.41715e-53
2.20433e-52
-1.85924e-52
-1.3742e-52
-6.84495e-52
-9.78935e-52
-3.29256e-51
-5.96239e-52
4.0921e-51
4.96269e-52
7.3825e-51
2.81956e-52
3.55637e-51
-1.66451e-52
3.77639e-52
5.61214e-52
6.08871e-51
2.2041e-52
6.0307e-52
-3.25272e-51
-3.00591e-39
-6.75737e-40
-2.93146e-40
-1.1264e-40
-2.7537e-41
-1.14304e-41
-2.39726e-42
-1.01874e-42
-2.0174e-43
-8.25914e-44
-1.60068e-44
-6.41994e-45
-1.2291e-45
-4.73015e-46
-8.99556e-47
-3.37466e-47
-6.38034e-48
-2.30771e-48
-4.34554e-49
-1.53148e-49
-2.87288e-50
-9.79869e-51
-1.83348e-51
-6.09219e-52
-1.1456e-52
-3.64028e-53
-1.07358e-53
-3.85781e-55
-1.82808e-53
1.19938e-53
-1.66849e-53
5.49944e-53
3.67687e-53
2.58912e-52
6.28235e-53
8.85596e-53
2.93109e-54
-3.91486e-52
-4.8167e-53
-3.15758e-52
-3.80272e-53
-3.61771e-53
3.58618e-54
1.37301e-52
3.01182e-53
1.47747e-52
1.81063e-54
-1.07946e-52
-2.9327e-53
-1.12108e-52
-1.15638e-53
1.2249e-52
1.4022e-53
1.50047e-52
1.35143e-53
5.35561e-53
3.17037e-54
-1.63963e-53
1.56051e-54
-5.03079e-54
1.20257e-53
-1.07747e-53
-9.80837e-54
-3.88419e-53
-5.7074e-53
-1.86151e-52
-3.21547e-53
2.68776e-52
2.99653e-53
4.38134e-52
1.63495e-53
2.1002e-52
-9.20956e-54
2.3649e-53
3.18958e-53
3.56166e-52
1.24521e-53
3.55377e-53
-1.90361e-52
-1.92294e-38
-6.14063e-39
-1.8224e-39
-8.42862e-40
-1.68764e-40
-8.08078e-41
-1.44211e-41
-7.02634e-42
-1.19944e-42
-5.59991e-43
-9.3869e-44
-4.30473e-44
-7.13629e-45
-3.13901e-45
-5.1662e-46
-2.22163e-46
-3.63267e-47
-1.50745e-47
-2.45181e-48
-9.94097e-49
-1.60863e-49
-6.32334e-50
-1.01871e-50
-3.91394e-51
-6.27933e-52
-2.34665e-52
-3.7723e-53
-1.36104e-53
-3.17241e-54
-8.84198e-56
-1.0429e-54
3.08439e-54
2.0273e-54
1.46402e-53
3.47269e-54
4.99546e-54
1.62617e-55
-2.21426e-53
-2.66359e-54
-1.78751e-53
-2.10603e-54
-2.05566e-54
1.95392e-55
7.77685e-54
1.66625e-54
8.40509e-54
1.0255e-55
-6.087e-54
-1.62062e-54
-6.33154e-54
-6.41619e-55
6.92839e-54
7.75215e-55
8.5008e-54
7.51771e-55
3.07857e-54
1.75801e-55
-9.64347e-55
7.9769e-56
-2.92803e-55
6.38791e-55
-6.03905e-55
-6.5873e-55
-2.12991e-54
-3.24988e-54
-1.01654e-53
-1.68453e-54
1.68384e-53
1.76594e-54
2.51381e-53
9.26934e-55
1.1994e-53
-4.9846e-55
1.44079e-54
1.76823e-54
2.01477e-53
6.87155e-55
2.02242e-54
-1.07837e-53
3.39372e-38
-4.78333e-39
3.27856e-39
-3.26417e-40
3.07545e-40
-2.41401e-41
2.6627e-41
-1.90166e-42
2.23601e-42
-1.46074e-43
1.76675e-43
-1.10662e-44
1.35319e-44
-8.00485e-46
9.86808e-46
-5.6372e-47
6.98016e-47
-3.80803e-48
4.7384e-48
-2.50222e-49
3.12395e-49
-1.58604e-50
1.98761e-50
-9.78737e-52
1.23001e-51
-5.851e-53
7.37476e-53
-3.40391e-54
4.25551e-54
-1.54783e-55
1.95416e-55
1.62762e-55
1.22741e-55
8.07687e-55
1.87038e-55
2.75125e-55
8.79382e-57
-1.22237e-54
-1.42934e-55
-9.8753e-55
-1.13218e-55
-1.13926e-55
1.02968e-56
4.2981e-55
8.94845e-56
4.65965e-55
5.67144e-57
-3.35212e-55
-8.68993e-56
-3.4911e-55
-3.45752e-56
3.82482e-55
4.15946e-56
4.69912e-55
4.06446e-56
1.72e-55
9.46402e-57
-5.47074e-56
3.8977e-57
-1.65015e-56
3.28637e-56
-3.29366e-56
-4.15384e-56
-1.13607e-55
-1.79364e-55
-5.40441e-55
-8.54292e-56
1.02349e-54
1.00512e-55
1.40816e-54
5.09337e-56
6.68299e-55
-2.61248e-56
8.41911e-56
9.51889e-56
1.11234e-54
3.67764e-56
1.12246e-55
-5.95903e-55
7.50038e-38
8.87366e-40
7.18968e-39
1.04904e-39
6.7115e-40
1.20039e-40
5.78071e-41
1.09532e-41
4.83665e-42
8.85288e-43
3.80725e-43
6.83399e-44
2.9077e-44
4.98895e-45
2.11433e-45
3.53188e-46
1.49211e-46
2.3965e-47
1.01058e-47
1.5803e-48
6.64981e-49
1.00514e-49
4.22298e-50
6.22105e-51
2.60911e-51
3.7299e-52
1.56211e-52
2.17908e-53
9.10939e-54
1.23923e-54
5.14103e-55
7.78697e-56
3.43095e-56
4.7008e-56
1.13048e-56
1.49068e-56
5.4142e-58
-6.54925e-56
-7.48906e-57
-5.29582e-56
-5.94371e-57
-6.1268e-57
5.31916e-58
2.30654e-56
4.69378e-57
2.51049e-56
3.04355e-58
-1.7914e-56
-4.55258e-57
-1.86845e-56
-1.8186e-57
2.04974e-56
2.18024e-57
2.52195e-56
2.1433e-57
9.35049e-57
4.96996e-58
-3.03496e-57
1.84943e-58
-9.06742e-58
1.64681e-57
-1.74346e-57
-2.5122e-57
-5.87492e-57
-9.67239e-57
-2.78453e-56
-4.20889e-57
5.98442e-56
5.5845e-57
7.65597e-56
2.7367e-57
3.61477e-56
-1.33933e-57
4.78984e-57
5.00316e-57
5.96157e-56
1.92353e-57
6.04154e-57
-3.19874e-56
-2.50423e-38
-3.27856e-39
-2.39586e-39
3.7199e-40
-2.23289e-40
5.29176e-41
-1.92057e-41
5.05856e-42
-1.60509e-42
4.14056e-43
-1.26222e-43
3.20812e-44
-9.63206e-45
2.34409e-45
-6.99887e-46
1.65974e-46
-4.93621e-47
1.12608e-47
-3.34142e-48
7.42463e-49
-2.19774e-49
4.72158e-50
-1.39512e-50
2.92187e-51
-8.61673e-52
1.75155e-52
-5.15744e-53
1.02312e-53
-3.00786e-54
5.80893e-55
-1.70638e-55
3.26589e-56
-9.13892e-57
4.00268e-57
-1.02838e-59
8.60084e-58
-3.21859e-60
-3.4239e-57
-3.83719e-58
-2.77365e-57
-3.03856e-58
-3.21669e-58
2.66785e-59
1.20884e-57
2.3969e-58
1.31979e-57
1.59581e-59
-9.35518e-58
-2.32131e-58
-9.76986e-58
-9.31533e-59
1.07295e-57
1.11241e-58
1.3218e-57
1.10118e-58
4.95105e-58
2.54087e-59
-1.63173e-58
8.38405e-60
-4.84066e-59
8.01149e-59
-8.99311e-59
-1.45228e-58
-2.95781e-58
-5.0722e-58
-1.39752e-57
-2.01046e-58
3.40242e-57
3.00935e-58
4.06674e-57
1.42996e-58
1.90934e-57
-6.67189e-59
2.63235e-58
2.56066e-58
3.12084e-57
9.78824e-59
3.17441e-58
-1.67657e-57
-7.47897e-38
-1.32844e-38
-7.15829e-39
-1.41364e-39
-6.67419e-40
-1.26679e-40
-5.74251e-41
-1.0771e-41
-4.80064e-42
-8.51651e-43
-3.77606e-43
-6.52647e-44
-2.88212e-44
-4.75101e-45
-2.09457e-45
-3.35896e-46
-1.47749e-46
-2.27703e-47
-1.00027e-47
-1.50047e-48
-6.57967e-49
-9.53738e-50
-4.17713e-50
-5.89968e-51
-2.58011e-51
-3.53534e-52
-1.54438e-52
-2.06444e-53
-9.00694e-54
-1.17157e-54
-5.10625e-55
-6.48504e-56
-2.82296e-56
-3.38448e-57
-1.49747e-57
-1.45389e-58
-7.89825e-59
-1.84201e-58
-2.31959e-59
-1.4192e-58
-1.53843e-59
-1.64609e-59
1.30166e-60
6.16871e-59
1.19654e-59
6.75975e-59
8.14347e-61
-4.75518e-59
-1.15737e-59
-4.97311e-59
-4.66263e-60
5.46781e-59
5.54944e-60
6.74504e-59
5.52563e-60
2.55601e-59
1.26877e-60
-8.57914e-60
3.6679e-61
-2.52279e-60
3.79751e-60
-4.51421e-60
-8.11773e-60
-1.44711e-59
-2.60072e-59
-6.81319e-59
-9.32633e-60
1.87126e-58
1.58402e-59
2.10279e-58
7.30964e-60
9.81814e-59
-3.25207e-60
1.4102e-59
1.28091e-59
1.59052e-58
4.8713e-60
1.62259e-59
-8.55899e-59
2.64587e-38
-7.94708e-39
2.52997e-39
-6.10694e-40
2.35674e-40
-4.83302e-41
2.02636e-41
-3.92673e-42
1.69299e-42
-3.05945e-43
1.33103e-43
-2.33356e-44
1.01551e-44
-1.69627e-45
7.37776e-46
-1.19866e-46
5.20275e-47
-8.12394e-48
3.52149e-48
-5.35261e-49
2.31598e-49
-3.40188e-50
1.47008e-50
-2.10414e-51
9.07922e-52
-1.26077e-52
5.43404e-53
-7.36149e-54
3.16894e-54
-4.17728e-55
1.79643e-55
-2.31283e-56
9.93705e-57
-1.24196e-57
5.3675e-58
-6.38155e-59
2.82571e-59
-1.20872e-59
5.21321e-61
-7.22111e-60
-6.669e-61
-8.2925e-61
6.64038e-62
3.077e-60
5.83035e-61
3.38248e-60
4.06457e-62
-2.36383e-60
-5.6293e-61
-2.47533e-60
-2.27757e-61
2.72423e-60
2.70094e-61
3.36464e-60
2.70674e-61
1.28755e-60
6.18123e-62
-4.38655e-61
1.52318e-62
-1.28069e-61
1.75019e-61
-2.21102e-61
-4.37678e-61
-6.89833e-61
-1.3e-60
-3.23714e-60
-4.19594e-61
1.00257e-59
8.11201e-61
1.0632e-59
3.64292e-61
4.93511e-60
-1.54427e-61
7.33167e-61
6.25272e-61
7.92497e-60
2.36433e-61
8.10485e-61
-4.27087e-60
7.4566e-38
7.74023e-40
7.12803e-39
1.04724e-39
6.64142e-40
1.20001e-40
5.7095e-41
1.09492e-41
4.77036e-42
8.84499e-43
3.74986e-43
6.82523e-44
2.86076e-44
4.98034e-45
2.078e-45
3.5247e-46
1.4652e-46
2.39087e-47
9.91525e-48
1.57624e-48
6.51984e-49
1.00233e-49
4.13764e-50
6.20273e-51
2.5549e-51
3.71835e-52
1.5288e-52
2.17208e-53
8.91349e-54
1.23309e-54
5.05176e-55
6.83042e-56
2.79358e-56
3.68642e-57
1.50535e-57
1.94444e-58
7.92473e-59
9.57984e-60
4.02865e-60
1.60646e-61
1.69471e-61
-1.51999e-62
1.30146e-62