/*--------------------------------*- C++ -*----------------------------------*\
| =========                 |                                                 |
| \\      /  F ield         | OpenFOAM: The Open Source CFD Toolbox           |
|  \\    /   O peration     | Version:  2.4.0                                 |
|   \\  /    A nd           | Web:      www.OpenFOAM.org                      |
|    \\/     M anipulation  |                                                 |
\*---------------------------------------------------------------------------*/
FoamFile
{
    version     2.0;
    format      ascii;
    class       volVectorField;
    location    "0.5";
    object      U;
}
// * * * * * * * * * * * * * * * * * * * * * * * * * * * * * * * * * * * * * //

dimensions      [0 1 -1 0 0 0 0];

internalField   nonuniform List<vector> 
1935
(
(5.04347e-36 1.44294e-36 0)
(5.41869e-35 1.10813e-35 0)
(2.91984e-34 1.00346e-34 0)
(3.55745e-33 8.08708e-35 0)
(3.31525e-33 -1.93986e-34 0)
(-3.3145e-33 -1.93843e-34 0)
(-3.55174e-33 8.25566e-35 0)
(-2.32618e-34 1.12989e-34 0)
(2.92676e-34 1.22675e-34 0)
(3.85012e-33 1.84459e-34 0)
(6.932e-33 -1.00202e-34 0)
(3.51923e-34 -2.74856e-34 0)
(-2.96321e-33 8.08706e-35 0)
(3.37518e-33 1.81215e-34 0)
(3.56322e-33 -8.25713e-35 0)
(2.92676e-34 -1.00506e-34 0)
(5.42885e-35 -1.11007e-35 0)
(5.08399e-36 -1.5435e-36 0)
(6.28874e-37 -1.43823e-37 0)
(5.65213e-38 -1.47231e-38 0)
(5.62372e-39 -1.24142e-39 0)
(4.67098e-40 -1.07921e-40 0)
(4.00497e-41 -8.32222e-42 0)
(3.29169e-42 -5.96399e-43 0)
(3.30592e-42 5.99577e-43 0)
(4.02665e-41 8.36462e-42 0)
(4.69919e-40 1.08517e-40 0)
(5.66067e-39 1.2491e-39 0)
(5.69479e-38 1.48226e-38 0)
(6.34025e-37 1.44956e-37 0)
(5.1348e-36 1.55697e-36 0)
(5.48599e-35 1.12296e-35 0)
(2.97119e-34 1.01903e-34 0)
(3.61231e-33 9.2099e-35 0)
(3.61231e-33 -9.2099e-35 0)
(2.97119e-34 -1.01903e-34 0)
(5.48599e-35 -1.12296e-35 0)
(5.1348e-36 -1.55697e-36 0)
(6.34025e-37 -1.44956e-37 0)
(5.69479e-38 -1.48227e-38 0)
(5.66038e-39 -1.24968e-39 0)
(4.67606e-40 -1.13074e-40 0)
(2.8959e-41 -4.50001e-41 0)
(-6.19014e-41 -1.80083e-40 0)
(1.17625e-36 -6.60501e-37 0)
(1.13767e-35 -5.75565e-36 0)
(6.23205e-35 -5.21429e-35 0)
(5.11375e-34 -4.19779e-35 0)
(4.59379e-34 1.00724e-34 0)
(-4.59197e-34 1.00654e-34 0)
(-5.10004e-34 -4.2822e-35 0)
(-4.97006e-35 -5.86838e-35 0)
(6.24886e-35 -6.37408e-35 0)
(5.73862e-34 -9.57452e-35 0)
(9.83356e-34 5.20722e-35 0)
(7.50784e-35 1.42702e-34 0)
(-3.84272e-34 -4.19779e-35 0)
(4.72135e-34 -9.41201e-35 0)
(5.12757e-34 4.2829e-35 0)
(6.24886e-35 5.22209e-35 0)
(1.14044e-35 5.76758e-36 0)
(1.21754e-36 7.74146e-37 0)
(1.51747e-37 7.05605e-38 0)
(1.44862e-38 7.02071e-39 0)
(1.45838e-39 5.79893e-40 0)
(1.25319e-40 4.94219e-41 0)
(1.08688e-41 3.75146e-42 0)
(9.13902e-43 2.65321e-43 0)
(9.17951e-43 -2.66702e-43 0)
(1.09295e-41 -3.7701e-42 0)
(1.26101e-40 -4.96872e-41 0)
(1.46838e-39 -5.83358e-40 0)
(1.46005e-38 -7.06634e-39 0)
(1.53078e-37 -7.10904e-38 0)
(1.23055e-36 -7.80579e-37 0)
(1.15414e-35 -5.83102e-36 0)
(6.35515e-35 -5.29233e-35 0)
(5.22914e-34 -4.78083e-35 0)
(5.22914e-34 4.78083e-35 0)
(6.35515e-35 5.29233e-35 0)
(1.15414e-35 5.83102e-36 0)
(1.23055e-36 7.80579e-37 0)
(1.53078e-37 7.10903e-38 0)
(1.46001e-38 7.06579e-39 0)
(1.46496e-39 5.77825e-40 0)
(9.85044e-41 5.53173e-42 0)
(-1.24795e-40 -3.56996e-40 0)
(-7.88571e-40 -1.81149e-39 0)
(2.63311e-37 -1.5732e-37 0)
(2.11979e-36 -1.34084e-36 0)
(8.02401e-36 -9.9947e-36 0)
(5.05561e-35 -7.63334e-36 0)
(4.44312e-35 1.91737e-35 0)
(-4.43867e-35 1.91556e-35 0)
(-5.026e-35 -7.83742e-36 0)
(-5.64028e-36 -1.15243e-35 0)
(8.06467e-36 -1.26984e-35 0)
(5.86204e-35 -1.80198e-35 0)
(9.73664e-35 9.97642e-36 0)
(1.04404e-35 2.6807e-35 0)
(-3.39833e-35 -7.63332e-36 0)
(4.68472e-35 -1.76278e-35 0)
(5.08551e-35 7.83927e-36 0)
(8.06467e-36 1.00149e-35 0)
(2.12496e-36 1.34378e-36 0)
(2.59139e-37 1.86047e-37 0)
(3.65966e-38 1.82278e-38 0)
(3.73167e-39 1.84593e-39 0)
(3.97633e-40 1.58434e-40 0)
(3.54312e-41 1.36958e-41 0)
(3.16789e-42 1.06576e-42 0)
(2.72518e-43 7.62041e-44 0)
(2.7376e-43 -7.66128e-44 0)
(3.18627e-42 -1.07121e-42 0)
(3.56637e-41 -1.3772e-41 0)
(4.00544e-40 -1.59418e-40 0)
(3.76389e-39 -1.85855e-39 0)
(3.69583e-38 -1.83724e-38 0)
(2.62467e-37 -1.87733e-37 0)
(2.15776e-36 -1.36014e-36 0)
(8.28641e-36 -1.01824e-35 0)
(5.27134e-35 -8.9933e-36 0)
(5.27134e-35 8.9933e-36 0)
(8.28641e-36 1.01824e-35 0)
(2.15776e-36 1.36014e-36 0)
(2.62467e-37 1.87733e-37 0)
(3.69579e-38 1.83719e-38 0)
(3.75971e-39 1.8536e-39 0)
(3.67224e-40 1.0952e-40 0)
(-2.35757e-40 -3.88294e-40 0)
(-1.3474e-39 -3.32677e-39 0)
(-7.97319e-39 -1.69697e-38 0)
(3.96015e-38 -3.9526e-38 0)
(2.77353e-37 -3.04797e-37 0)
(7.59429e-37 -2.13512e-36 0)
(3.78604e-36 -1.6046e-36 0)
(3.27184e-36 4.09558e-36 0)
(-3.26472e-36 4.09083e-36 0)
(-3.74212e-36 -1.65564e-36 0)
(-4.43399e-37 -2.48681e-36 0)
(7.65884e-37 -2.75034e-36 0)
(4.55184e-36 -3.83742e-36 0)
(7.3731e-36 2.13021e-36 0)
(1.08055e-36 5.70017e-36 0)
(-2.19004e-36 -1.60458e-36 0)
(3.59293e-36 -3.73955e-36 0)
(3.83043e-36 1.65615e-36 0)
(7.65884e-37 2.14037e-36 0)
(2.78019e-37 3.05548e-37 0)
(3.80494e-38 4.63081e-38 0)
(5.80028e-39 4.80063e-39 0)
(6.24127e-40 5.13558e-40 0)
(6.88092e-41 4.57396e-41 0)
(6.31818e-42 4.08167e-42 0)
(5.76146e-43 3.24959e-43 0)
(5.05538e-44 2.36524e-44 0)
(5.07895e-44 -2.37827e-44 0)
(5.79594e-43 -3.26676e-43 0)
(6.36122e-42 -4.10531e-42 0)
(6.93377e-41 -4.60389e-41 0)
(6.29862e-40 -5.1731e-40 0)
(5.86267e-39 -4.84224e-39 0)
(3.86035e-38 -4.67753e-38 0)
(2.83182e-37 -3.09827e-37 0)
(7.97995e-37 -2.18178e-36 0)
(4.06914e-36 -1.91436e-36 0)
(4.06914e-36 1.91436e-36 0)
(7.97995e-37 2.18178e-36 0)
(2.83182e-37 3.09827e-37 0)
(3.86032e-38 4.6775e-38 0)
(5.85892e-39 4.83818e-39 0)
(5.92065e-40 4.75394e-40 0)
(-2.34348e-40 -3.81717e-40 0)
(-2.4995e-39 -3.48615e-39 0)
(-1.26603e-38 -2.93944e-38 0)
(-7.58701e-38 -1.52897e-37 0)
(4.9116e-39 -1.16511e-38 0)
(3.64751e-38 -4.81109e-38 0)
(6.31271e-38 -3.06077e-37 0)
(1.99431e-37 -2.2465e-37 0)
(1.67933e-37 5.84424e-37 0)
(-1.66819e-37 5.83647e-37 0)
(-1.93043e-37 -2.32745e-37 0)
(-2.14247e-38 -3.59262e-37 0)
(6.40047e-38 -3.99272e-37 0)
(2.63343e-37 -5.45351e-37 0)
(4.08729e-37 3.0426e-37 0)
(1.05374e-37 8.0894e-37 0)
(-6.23468e-38 -2.24487e-37 0)
(2.10276e-37 -5.29549e-37 0)
(2.05733e-37 2.32834e-37 0)
(6.40047e-38 3.05978e-37 0)
(3.61856e-38 4.67456e-38 0)
(5.40784e-39 7.45624e-39 0)
(8.88341e-40 8.10464e-40 0)
(9.95177e-41 8.95096e-41 0)
(1.13346e-41 8.21331e-42 0)
(1.06484e-42 7.47604e-43 0)
(9.88644e-44 6.06705e-44 0)
(8.80504e-45 4.46999e-45 0)
(8.84684e-45 -4.4952e-45 0)
(9.94706e-44 -6.09994e-44 0)
(1.07232e-42 -7.52072e-43 0)
(1.14252e-41 -8.26913e-42 0)
(1.00482e-40 -9.01959e-41 0)
(8.98594e-40 -8.1792e-40 0)
(5.49583e-39 -7.53741e-39 0)
(3.69723e-38 -4.74651e-38 0)
(6.85015e-38 -3.12607e-37 0)
(2.36311e-37 -2.71944e-37 0)
(2.36311e-37 2.71944e-37 0)
(6.85015e-38 3.12607e-37 0)
(3.6972e-38 4.74648e-38 0)
(5.49273e-39 7.5348e-39 0)
(8.66742e-40 7.8689e-40 0)
(-2.24049e-40 -2.32839e-40 0)
(-2.62871e-39 -3.33157e-39 0)
(-2.21633e-38 -2.76833e-38 0)
(-1.14225e-37 -2.3771e-37 0)
(-6.98945e-37 -1.26999e-36 0)
(-7.88639e-39 -4.80279e-38 0)
(7.79023e-39 -2.04118e-38 0)
(5.95631e-39 -5.26135e-38 0)
(5.61649e-39 -3.31252e-38 0)
(3.74741e-39 8.31024e-38 0)
(-3.4601e-39 8.31956e-38 0)
(-4.07249e-39 -3.2975e-38 0)
(4.46209e-43 -5.15573e-38 0)
(5.00377e-39 -5.74181e-38 0)
(9.8667e-39 -7.76392e-38 0)
(1.3347e-38 4.33659e-38 0)
(9.84806e-39 1.15038e-37 0)
(6.24877e-39 -3.16844e-38 0)
(8.59972e-39 -7.51792e-38 0)
(5.66427e-39 3.29863e-38 0)
(5.00374e-39 4.36425e-38 0)
(4.20256e-39 6.90414e-39 0)
(6.72061e-40 1.15835e-39 0)
(1.16004e-40 1.30279e-40 0)
(1.3433e-41 1.4834e-41 0)
(1.56634e-42 1.39212e-42 0)
(1.50109e-43 1.29019e-43 0)
(1.41348e-44 1.06204e-44 0)
(1.27607e-45 7.90601e-46 0)
(1.28223e-45 -7.95134e-46 0)
(1.42233e-44 -1.06791e-44 0)
(1.51192e-43 -1.29809e-43 0)
(1.57927e-42 -1.40188e-42 0)
(1.35688e-41 -1.49523e-41 0)
(1.17417e-40 -1.3154e-40 0)
(6.839e-40 -1.17177e-39 0)
(4.30483e-39 -7.01932e-39 0)
(5.55665e-39 -4.46678e-38 0)
(9.16779e-39 -3.87024e-38 0)
(9.16778e-39 3.87024e-38 0)
(5.55649e-39 4.46677e-38 0)
(4.30283e-39 7.01781e-39 0)
(6.60232e-40 1.15323e-39 0)
(-1.28607e-40 -9.1124e-41 0)
(-2.52557e-39 -2.33276e-39 0)
(-2.09759e-38 -2.472e-38 0)
(-1.79467e-37 -2.09246e-37 0)
(-9.49275e-37 -1.84837e-36 0)
(-5.92512e-36 -1.02341e-35 0)
(-7.1624e-38 -3.95043e-37 0)
(3.43547e-38 -1.12346e-37 0)
(1.04308e-38 -8.09011e-38 0)
(6.24931e-39 -1.55727e-38 0)
(5.08241e-40 8.2059e-39 0)
(7.82268e-40 9.96299e-39 0)
(7.10716e-40 -4.03383e-39 0)
(1.70028e-40 -6.36185e-39 0)
(4.16369e-40 -7.0999e-39 0)
(-1.76676e-40 -9.49097e-39 0)
(-6.01908e-40 5.31209e-39 0)
(9.79483e-40 1.40484e-38 0)
(1.55714e-39 -3.83696e-39 0)
(5.3921e-42 -9.16652e-39 0)
(-4.95489e-40 4.00895e-39 0)
(4.16112e-40 5.34965e-39 0)
(4.86171e-40 8.77274e-40 0)
(8.10947e-41 1.52482e-40 0)
(1.45317e-41 1.76664e-41 0)
(1.7227e-42 2.05697e-42 0)
(2.04717e-43 1.96878e-43 0)
(1.99126e-44 1.85049e-44 0)
(1.89652e-45 1.54311e-45 0)
(1.72967e-46 1.15864e-46 0)
(1.73812e-46 -1.16539e-46 0)
(1.90859e-45 -1.5518e-45 0)
(2.00592e-44 -1.86207e-44 0)
(2.06451e-43 -1.98295e-43 0)
(1.7407e-42 -2.07391e-42 0)
(1.47162e-41 -1.78445e-41 0)
(8.26089e-41 -1.54339e-40 0)
(4.9894e-40 -8.92846e-40 0)
(4.82263e-40 -5.48407e-39 0)
(-9.38792e-41 -4.72962e-39 0)
(-9.39597e-41 4.72957e-39 0)
(4.81103e-40 5.4834e-39 0)
(4.84739e-40 8.83777e-40 0)
(-8.77173e-41 4.22759e-41 0)
(-1.77812e-39 -1.34425e-39 0)
(-1.88356e-38 -1.45767e-38 0)
(-1.58768e-37 -1.56618e-37 0)
(-1.39545e-36 -1.36301e-36 0)
(-7.62989e-36 -1.24418e-35 0)
(-4.92003e-35 -7.25942e-35 0)
(-5.40624e-37 -2.99296e-36 0)
(3.43101e-37 -8.77322e-37 0)
(9.18691e-38 -6.1592e-37 0)
(5.73333e-38 -9.35827e-38 0)
(8.74796e-39 -1.4291e-38 0)
(1.62762e-39 -5.25359e-40 0)
(3.04957e-40 -6.76282e-40 0)
(4.72251e-41 -7.82171e-40 0)
(3.85661e-41 -8.55202e-40 0)
(-8.2494e-41 -1.13306e-39 0)
(-1.67065e-40 6.34595e-40 0)
(9.76552e-41 1.6756e-39 0)
(2.07111e-40 -4.5515e-40 0)
(-4.61439e-41 -1.092e-39 0)
(-1.08388e-40 4.76867e-40 0)
(3.66016e-41 6.39446e-40 0)
(5.24724e-41 1.07299e-40 0)
(9.03476e-42 1.92031e-41 0)
(1.66098e-42 2.27325e-42 0)
(2.00823e-43 2.69574e-43 0)
(2.42138e-44 2.61842e-44 0)
(2.38605e-45 2.48927e-45 0)
(2.29373e-46 2.09597e-46 0)
(2.11116e-47 1.58438e-47 0)
(2.12159e-47 -1.59371e-47 0)
(2.30855e-46 -2.10792e-46 0)
(2.40392e-45 -2.50511e-45 0)
(2.44233e-44 -2.63766e-44 0)
(2.02977e-43 -2.71851e-43 0)
(1.68277e-42 -2.29691e-42 0)
(9.2109e-42 -1.94461e-41 0)
(5.39276e-41 -1.09298e-40 0)
(4.39242e-41 -6.56324e-40 0)
(-6.5391e-41 -5.6444e-40 0)
(-6.58724e-41 5.64156e-40 0)
(3.69384e-41 6.52612e-40 0)
(-3.23348e-41 5.86762e-41 0)
(-1.03792e-39 -6.13982e-40 0)
(-1.11817e-38 -7.83913e-39 0)
(-1.19741e-37 -8.5627e-38 0)
(-1.03478e-36 -9.48414e-37 0)
(-9.35987e-36 -8.56976e-36 0)
(-5.34969e-35 -8.25141e-35 0)
(-3.54818e-34 -5.16589e-34 0)
(-3.0659e-36 -2.24416e-35 0)
(3.60274e-36 -6.17425e-36 0)
(8.69244e-37 -4.29722e-36 0)
(4.77444e-37 -6.33372e-37 0)
(7.06137e-38 -1.01306e-37 0)
(1.17412e-38 -1.09653e-38 0)
(1.336e-39 -1.29326e-39 0)
(1.54907e-40 -1.99029e-40 0)
(1.77794e-41 -1.0473e-40 0)
(-1.0256e-41 -1.24951e-40 0)
(-2.20519e-41 6.95231e-41 0)
(9.89704e-42 1.8339e-40 0)
(2.35105e-41 -4.95363e-41 0)
(-6.93638e-42 -1.19391e-40 0)
(-1.38716e-41 5.20319e-41 0)
(3.45103e-42 7.01581e-41 0)
(5.51776e-42 1.20404e-41 0)
(9.69854e-43 2.20194e-42 0)
(1.81731e-43 2.65603e-43 0)
(2.22959e-44 3.19466e-44 0)
(2.71914e-45 3.14343e-45 0)
(2.70629e-46 3.01622e-46 0)
(2.62067e-47 2.56186e-47 0)
(2.42901e-48 1.94762e-48 0)
(2.44111e-48 -1.95921e-48 0)
(2.63778e-47 -2.57664e-47 0)
(2.72684e-46 -3.03569e-46 0)
(2.74305e-45 -3.16693e-45 0)
(2.25397e-44 -3.22223e-44 0)
(1.84171e-43 -2.68441e-43 0)
(9.89321e-43 -2.23071e-42 0)
(5.67574e-42 -1.22738e-41 0)
(4.21975e-42 -7.20926e-41 0)
(-9.57556e-42 -6.18744e-41 0)
(-1.2252e-41 6.0787e-41 0)
(-3.50677e-41 5.77725e-41 0)
(-4.85599e-40 -1.85039e-40 0)
(-6.07054e-39 -2.49922e-39 0)
(-6.60892e-38 -3.15218e-38 0)
(-7.27527e-37 -3.53168e-37 0)
(-6.48391e-36 -4.05775e-36 0)
(-6.12668e-35 -3.90176e-35 0)
(-3.68711e-34 -4.04311e-34 0)
(-2.59821e-33 -2.87324e-33 0)
(-7.94418e-36 -1.40906e-34 0)
(4.17001e-35 -4.23669e-35 0)
(8.20404e-36 -3.12143e-35 0)
(3.45201e-36 -4.37735e-36 0)
(4.82436e-37 -6.73163e-37 0)
(7.63163e-38 -7.07937e-38 0)
(8.35138e-39 -7.70948e-39 0)
(9.38801e-40 -7.04032e-40 0)
(8.75401e-41 -7.27425e-41 0)
(6.78197e-42 -1.81487e-41 0)
(-1.7104e-42 6.95719e-42 0)
(1.017e-42 1.93296e-41 0)
(2.39728e-42 -5.20911e-42 0)
(-7.64074e-43 -1.25921e-41 0)
(-1.46831e-42 5.48017e-42 0)
(3.24652e-43 7.41862e-42 0)
(5.46858e-43 1.29404e-42 0)
(9.78284e-44 2.40538e-43 0)
(1.85915e-44 2.94174e-44 0)
(2.31034e-45 3.57598e-45 0)
(2.84346e-46 3.55228e-46 0)
(2.85521e-47 3.43167e-47 0)
(2.78175e-48 2.93304e-48 0)
(2.59458e-49 2.23865e-49 0)
(2.60753e-49 -2.25208e-49 0)
(2.79997e-48 -2.95012e-48 0)
(2.8769e-47 -3.45411e-47 0)
(2.8684e-46 -3.57928e-46 0)
(2.3353e-45 -3.60752e-45 0)
(1.88335e-44 -2.97413e-44 0)
(9.96289e-44 -2.43812e-43 0)
(5.59542e-43 -1.32081e-42 0)
(3.49111e-43 -7.64519e-42 0)
(-1.83433e-42 -6.77642e-42 0)
(-1.24039e-41 2.73964e-42 0)
(-1.5637e-40 -4.62147e-41 0)
(-1.98537e-39 -7.54643e-40 0)
(-2.49607e-38 -9.75281e-39 0)
(-2.77817e-37 -1.26634e-37 0)
(-3.14253e-36 -1.46679e-36 0)
(-2.91345e-35 -1.79453e-35 0)
(-2.87144e-34 -1.87737e-34 0)
(-1.8549e-33 -2.20464e-33 0)
(-1.36619e-32 -1.82694e-32 0)
(1.8261e-34 -1.13381e-33 0)
(5.42961e-34 -2.68195e-34 0)
(9.26837e-35 -1.8338e-34 0)
(3.09604e-35 -2.45699e-35 0)
(3.97273e-36 -3.51946e-36 0)
(5.9552e-37 -3.55162e-37 0)
(6.24393e-38 -3.71261e-38 0)
(6.83577e-39 -3.26576e-39 0)
(6.19607e-40 -2.8913e-40 0)
(5.61353e-41 -2.3781e-41 0)
(4.36437e-42 -1.25673e-42 0)
(4.26738e-43 1.25832e-42 0)
(1.95591e-43 -3.80757e-43 0)
(-5.38329e-44 -9.02106e-43 0)
(-1.05386e-43 3.92008e-43 0)
(2.21482e-44 5.32421e-43 0)
(3.82655e-44 9.43792e-44 0)
(6.92252e-45 1.79401e-44 0)
(1.32775e-45 2.2304e-45 0)
(1.66364e-46 2.75479e-46 0)
(2.05913e-47 2.7724e-47 0)
(2.07882e-48 2.70891e-48 0)
(2.0321e-49 2.33811e-49 0)
(1.90159e-50 1.79828e-50 0)
(1.90851e-50 -1.80915e-50 0)
(2.04014e-49 -2.3518e-49 0)
(2.08463e-48 -2.72668e-48 0)
(2.05875e-47 -2.79343e-47 0)
(1.6487e-46 -2.7788e-46 0)
(1.28777e-45 -2.25413e-45 0)
(6.09371e-45 -1.81661e-44 0)
(2.35666e-44 -9.59805e-44 0)
(-2.17832e-43 -5.42536e-43 0)
(-3.79932e-42 -3.83901e-43 0)
(-5.3122e-41 1.70395e-42 0)
(-7.45362e-40 1.76087e-41 0)
(-9.61994e-39 2.26144e-40 0)
(-1.24367e-37 2.63539e-39 0)
(-1.4208e-36 2.53353e-38 0)
(-1.67814e-35 4.35339e-38 0)
(-1.61794e-34 -5.90571e-36 0)
(-1.71609e-33 -2.11924e-34 0)
(-1.18218e-32 -4.58997e-33 0)
(-1.01982e-31 -6.93652e-32 0)
(6.39062e-33 -6.97444e-33 0)
(1.04867e-32 -2.26174e-33 0)
(1.35216e-33 -1.77778e-33 0)
(2.73896e-34 -2.09234e-34 0)
(3.06752e-35 -2.90325e-35 0)
(4.02407e-36 -2.77314e-36 0)
(3.96671e-37 -2.84101e-37 0)
(4.11249e-38 -2.42376e-38 0)
(3.61072e-39 -2.11014e-39 0)
(3.18884e-40 -1.63929e-40 0)
(2.52558e-41 -1.26254e-41 0)
(1.9784e-42 -8.13368e-43 0)
(1.5239e-43 -8.71541e-44 0)
(6.94315e-45 -6.22397e-44 0)
(-5.30312e-45 2.49487e-44 0)
(1.27448e-45 3.43365e-44 0)
(2.15521e-45 6.14921e-45 0)
(3.94238e-46 1.17443e-45 0)
(7.66127e-47 1.46951e-46 0)
(9.70176e-48 1.81928e-47 0)
(1.21212e-48 1.83715e-48 0)
(1.23371e-49 1.79634e-49 0)
(1.21397e-50 1.5525e-50 0)
(1.1437e-51 1.19375e-51 0)
(1.15908e-51 -1.19614e-51 0)
(1.2416e-50 -1.55244e-50 0)
(1.27994e-49 -1.79036e-49 0)
(1.28995e-48 -1.81762e-48 0)
(1.09912e-47 -1.77367e-47 0)
(9.79313e-47 -1.37603e-46 0)
(7.36839e-46 -1.00051e-45 0)
(7.58831e-45 -3.11608e-45 0)
(8.38891e-44 1.58374e-44 0)
(1.22479e-42 7.60691e-43 0)
(1.73177e-41 1.19445e-41 0)
(2.38396e-40 1.68747e-40 0)
(3.04223e-39 2.32425e-39 0)
(3.82477e-38 2.8702e-38 0)
(4.31674e-37 3.19629e-37 0)
(4.89875e-36 1.96424e-36 0)
(4.66434e-35 -2.51677e-35 0)
(4.64818e-34 -1.52971e-33 0)
(3.17993e-33 -3.88689e-32 0)
(2.43509e-32 -7.10664e-31 0)
(1.23439e-31 -7.65651e-32 0)
(1.42343e-31 -6.64395e-33 0)
(1.32554e-32 -3.88635e-34 0)
(2.60577e-33 -1.71087e-35 0)
(2.62169e-34 -4.91104e-37 0)
(3.36207e-35 -2.65554e-39 0)
(3.15148e-36 1.25996e-39 0)
(3.21123e-37 1.33944e-40 0)
(2.73914e-38 1.15011e-41 0)
(2.38714e-39 8.37529e-43 0)
(1.8561e-40 6.19643e-44 0)
(1.43552e-41 9.12328e-45 0)
(1.02523e-42 -1.11292e-45 0)
(7.16936e-44 -3.32666e-45 0)
(4.39903e-45 1.45118e-45 0)
(3.77142e-46 1.98143e-45 0)
(1.43573e-46 3.58808e-46 0)
(2.41415e-47 6.92506e-47 0)
(4.55675e-48 8.74829e-48 0)
(5.75439e-49 1.09123e-48 0)
(7.18066e-50 1.10974e-49 0)
(7.32113e-51 1.09076e-50 0)
(7.20839e-52 9.47337e-52 0)
(7.16783e-53 7.3049e-53 0)
(1.42654e-52 -7.38405e-53 0)
(2.16801e-51 -9.59538e-52 0)
(3.45254e-50 -1.11087e-50 0)
(5.70212e-49 -1.14259e-49 0)
(9.40422e-48 -1.14568e-48 0)
(1.56866e-46 -9.63941e-48 0)
(2.55139e-45 -8.39489e-47 0)
(4.09766e-44 -5.94771e-46 0)
(6.30183e-43 -5.75111e-45 0)
(9.47584e-42 -5.90614e-44 0)
(1.34494e-40 -8.64421e-43 0)
(1.86925e-39 -1.22281e-41 0)
(2.4064e-38 -1.67517e-40 0)
(3.0663e-37 -1.98908e-39 0)
(3.50083e-36 -1.92817e-38 0)
(4.05244e-35 3.7547e-39 0)
(3.92303e-34 6.30528e-36 0)
(4.04239e-33 2.28107e-34 0)
(2.84948e-32 5.29138e-33 0)
(2.35092e-31 9.18496e-32 0)
(9.61931e-33 -7.51931e-32 0)
(8.83695e-33 -5.06994e-33 0)
(1.17551e-33 1.33444e-33 0)
(2.4515e-34 1.88897e-34 0)
(2.80205e-35 2.83451e-35 0)
(3.73677e-36 2.75866e-36 0)
(3.7247e-37 2.84494e-37 0)
(3.89588e-38 2.43095e-38 0)
(3.44308e-39 2.11687e-39 0)
(3.05722e-40 1.64376e-40 0)
(2.43261e-41 1.2696e-41 0)
(1.9081e-42 9.05479e-43 0)
(1.38472e-43 6.33509e-44 0)
(9.80955e-45 3.98955e-45 0)
(6.37586e-46 3.54366e-46 0)
(4.65524e-47 1.3232e-46 0)
(9.40089e-48 2.21089e-47 0)
(1.41602e-48 4.14421e-48 0)
(2.5591e-49 5.21929e-49 0)
(3.21239e-50 6.4979e-50 0)
(4.00255e-51 6.61656e-51 0)
(4.09041e-52 6.50239e-52 0)
(4.03357e-53 5.65049e-53 0)
(3.95508e-54 4.12309e-54 0)
(6.63859e-54 -9.16726e-54 0)
(9.37861e-53 -1.52118e-52 0)
(1.39148e-51 -2.50529e-51 0)
(2.14993e-50 -4.15414e-50 0)
(3.34466e-49 -7.06089e-49 0)
(5.29786e-48 -1.18956e-47 0)
(8.27775e-47 -2.00765e-46 0)
(1.26947e-45 -3.28923e-45 0)
(1.88729e-44 -5.30413e-44 0)
(2.68434e-43 -8.17315e-43 0)
(3.67245e-42 -1.23119e-41 0)
(4.72174e-41 -1.74273e-40 0)
(5.81965e-40 -2.39796e-39 0)
(6.57942e-39 -2.94621e-38 0)
(7.12771e-38 -3.223e-37 0)
(6.67933e-37 -1.74343e-36 0)
(6.07363e-36 3.47632e-35 0)
(3.82402e-35 1.80817e-33 0)
(2.63519e-34 4.49712e-32 0)
(-4.88443e-34 8.12641e-31 0)
(2.03214e-33 -5.47648e-33 0)
(-3.98113e-34 -5.38808e-34 0)
(-1.04017e-35 1.10659e-34 0)
(1.40428e-35 1.96961e-35 0)
(2.39283e-36 3.13735e-36 0)
(4.23804e-37 3.26857e-37 0)
(4.7888e-38 3.46675e-38 0)
(5.53053e-39 3.0717e-39 0)
(5.18261e-40 2.72611e-40 0)
(4.82629e-41 2.16684e-41 0)
(3.96637e-42 1.69764e-42 0)
(3.19481e-43 1.23067e-43 0)
(2.36346e-44 8.71583e-45 0)
(1.70256e-45 5.71887e-46 0)
(1.14203e-46 4.24777e-47 0)
(7.78047e-48 8.62894e-48 0)
(8.37031e-49 1.29702e-48 0)
(9.67937e-50 2.33061e-49 0)
(1.50563e-50 2.91807e-50 0)
(1.8154e-51 3.62699e-51 0)
(2.21735e-52 3.70146e-52 0)
(2.25198e-53 3.6429e-53 0)
(2.13557e-54 3.17352e-54 0)
(-1.3548e-54 2.51099e-55 0)
(-3.10048e-53 -1.16254e-55 0)
(-6.06117e-52 -5.55254e-55 0)
(-1.14697e-50 1.55814e-53 0)
(-2.11607e-49 6.27048e-52 0)
(-3.76718e-48 1.50663e-50 0)
(-6.54172e-47 3.07261e-49 0)
(-1.08999e-45 5.69774e-48 0)
(-1.77374e-44 9.83145e-47 0)
(-2.74596e-43 1.63594e-45 0)
(-4.16482e-42 2.55532e-44 0)
(-5.92979e-41 3.94902e-43 0)
(-8.33031e-40 5.71886e-42 0)
(-1.07481e-38 8.6242e-41 0)
(-1.38925e-37 1.31132e-39 0)
(-1.58665e-36 2.47665e-38 0)
(-1.8738e-35 5.39824e-37 0)
(-1.80594e-34 1.33207e-35 0)
(-1.9156e-33 3.01785e-34 0)
(-1.31905e-32 5.81635e-33 0)
(-1.13849e-31 8.26393e-32 0)
(1.71136e-34 -9.90056e-34 0)
(-6.48509e-35 -9.69818e-35 0)
(-6.2729e-36 6.17158e-36 0)
(4.0913e-37 1.82064e-36 0)
(1.40886e-37 3.68682e-37 0)
(3.17862e-38 4.27244e-38 0)
(3.96808e-39 4.96534e-39 0)
(4.86997e-40 4.65542e-40 0)
(4.76704e-41 4.33118e-41 0)
(4.571e-42 3.55592e-42 0)
(3.8518e-43 2.86137e-43 0)
(3.15804e-44 2.11505e-44 0)
(2.37447e-45 1.52282e-45 0)
(1.73151e-46 1.02405e-46 0)
(1.17971e-47 7.01393e-48 0)
(7.96307e-49 7.61313e-49 0)
(6.8089e-50 8.83003e-50 0)
(6.52378e-51 1.3702e-50 0)
(8.66848e-52 1.64912e-51 0)
(9.91198e-53 2.00989e-52 0)
(1.17787e-53 2.03891e-53 0)
(1.18641e-54 1.99907e-54 0)
(1.29926e-55 1.84175e-55 0)
(2.99162e-55 2.29996e-55 0)
(5.74183e-54 4.42995e-54 0)
(1.11216e-52 8.84557e-53 0)
(2.08864e-51 1.7234e-51 0)
(3.82196e-50 3.254e-50 0)
(6.75127e-49 5.99151e-49 0)
(1.16111e-47 1.06489e-47 0)
(1.9165e-46 1.84577e-46 0)
(3.07971e-45 3.07051e-45 0)
(4.70948e-44 4.98594e-44 0)
(7.02105e-43 7.70461e-43 0)
(9.83155e-42 1.16541e-41 0)
(1.34791e-40 1.65576e-40 0)
(1.69901e-39 2.31855e-39 0)
(2.1183e-38 2.98715e-38 0)
(2.33729e-37 3.8561e-37 0)
(2.60858e-36 4.43628e-36 0)
(2.38124e-35 5.3226e-35 0)
(2.2973e-34 5.39741e-34 0)
(1.44474e-33 6.05379e-33 0)
(1.0359e-32 4.72354e-32 0)
(2.05467e-35 -8.1511e-35 0)
(-9.77802e-36 -9.14008e-36 0)
(-1.08241e-36 1.04092e-37 0)
(-5.60124e-38 1.13528e-37 0)
(4.1035e-39 2.8198e-38 0)
(2.14088e-39 3.56879e-39 0)
(3.17166e-40 4.38838e-40 0)
(4.31763e-41 4.29288e-41 0)
(4.47549e-42 4.11085e-42 0)
(4.47886e-43 3.46032e-43 0)
(3.88634e-44 2.83424e-44 0)
(3.26048e-45 2.12934e-45 0)
(2.49404e-46 1.55185e-46 0)
(1.844e-47 1.05836e-47 0)
(1.27272e-48 7.16138e-49 0)
(8.58336e-50 6.16159e-50 0)
(6.3472e-51 5.92832e-51 0)
(5.09375e-52 7.87835e-52 0)
(5.44238e-53 9.0001e-53 0)
(5.62802e-54 1.06763e-53 0)
(6.30464e-55 1.07351e-54 0)
(6.97282e-56 1.05208e-55 0)
(1.69937e-55 2.03386e-56 0)
(3.36239e-54 2.36986e-55 0)
(6.70169e-53 4.84875e-54 0)
(1.30372e-51 9.67647e-53 0)
(2.45851e-50 1.88484e-51 0)
(4.52155e-49 3.5589e-50 0)
(8.02797e-48 6.55525e-49 0)
(1.38988e-46 1.16562e-47 0)
(2.30961e-45 2.02176e-46 0)
(3.74527e-44 3.36567e-45 0)
(5.77988e-43 5.47049e-44 0)
(8.7272e-42 8.46161e-43 0)
(1.23772e-40 1.28182e-41 0)
(1.7284e-39 1.82484e-40 0)
(2.21894e-38 2.56697e-39 0)
(2.84431e-37 3.3437e-38 0)
(3.22698e-36 4.44238e-37 0)
(3.76471e-35 5.5135e-36 0)
(3.59522e-34 7.67278e-35 0)
(3.74074e-33 1.03451e-33 0)
(2.54159e-32 1.53275e-32 0)
(2.11577e-31 1.76497e-31 0)
(1.6419e-36 -9.51387e-36 0)
(-8.12975e-37 -1.08332e-36 0)
(-9.86836e-38 -5.77835e-38 0)
(-8.46857e-39 3.43165e-39 0)
(-1.58858e-40 1.9358e-39 0)
(1.12237e-40 2.87484e-40 0)
(2.04049e-41 3.90512e-41 0)
(3.05475e-42 4.04086e-42 0)
(3.33612e-43 4.03697e-43 0)
(3.45696e-44 3.49879e-44 0)
(3.07893e-45 2.93234e-45 0)
(2.63242e-46 2.24131e-46 0)
(2.04573e-47 1.65612e-47 0)
(1.53074e-48 1.14327e-48 0)
(1.06851e-49 7.71725e-50 0)
(7.23927e-51 5.72536e-51 0)
(5.06168e-52 4.61035e-52 0)
(3.70659e-53 4.93544e-53 0)
(3.37579e-54 5.10479e-54 0)
(3.15996e-55 5.70925e-55 0)
(3.36031e-56 5.60358e-56 0)
(1.62827e-56 5.07911e-57 0)
(2.76333e-55 -6.2222e-57 0)
(5.66369e-54 -1.4035e-55 0)
(1.12987e-52 -2.8784e-54 0)
(2.19995e-51 -5.73828e-53 0)
(4.15217e-50 -1.11637e-51 0)
(7.64436e-49 -2.10539e-50 0)
(1.3586e-47 -3.87241e-49 0)
(2.35507e-46 -6.87611e-48 0)
(3.91804e-45 -1.19056e-46 0)
(6.36323e-44 -1.97851e-45 0)
(9.83365e-43 -3.20789e-44 0)
(1.4877e-41 -4.94649e-43 0)
(2.11346e-40 -7.44265e-42 0)
(2.95893e-39 -1.04173e-40 0)
(3.80666e-38 -1.38947e-39 0)
(4.8971e-37 -1.49962e-38 0)
(5.57093e-36 -8.51152e-38 0)
(6.53468e-35 2.79283e-36 0)
(6.26335e-34 1.37562e-34 0)
(6.57804e-33 4.09987e-33 0)
(4.49503e-32 9.04376e-32 0)
(3.82066e-31 1.51509e-30 0)
(1.52866e-37 -7.52819e-37 0)
(-7.57903e-38 -9.16511e-38 0)
(-9.42438e-39 -7.72617e-39 0)
(-1.11535e-39 -1.35922e-40 0)
(-6.33517e-41 1.03084e-40 0)
(2.87263e-42 1.85944e-41 0)
(1.10434e-42 2.76949e-42 0)
(2.00996e-43 3.01697e-43 0)
(2.38032e-44 3.11992e-44 0)
(2.59718e-45 2.77516e-45 0)
(2.39065e-46 2.37014e-46 0)
(2.09403e-47 1.84046e-47 0)
(1.65649e-48 1.37626e-48 0)
(1.25652e-49 9.60568e-50 0)
(8.86874e-51 6.50999e-51 0)
(6.04612e-52 4.56009e-52 0)
(4.09593e-53 3.34723e-53 0)
(2.81897e-54 3.05552e-54 0)
(2.23454e-55 2.86258e-55 0)
(1.86611e-56 2.98777e-56 0)
(1.78742e-57 2.79369e-57 0)
(5.57326e-58 -8.29321e-58 0)
(8.36102e-57 -2.36393e-56 0)
(1.71307e-55 -4.97099e-55 0)
(3.41858e-54 -1.02006e-53 0)
(6.65877e-53 -2.03524e-52 0)
(1.25725e-51 -3.96333e-51 0)
(2.31569e-50 -7.48152e-50 0)
(4.11737e-49 -1.37761e-48 0)
(7.14113e-48 -2.44882e-47 0)
(1.18865e-46 -4.24574e-46 0)
(1.93175e-45 -7.06486e-45 0)
(2.9871e-44 -1.14753e-43 0)
(4.52291e-43 -1.773e-42 0)
(6.43003e-42 -2.67826e-41 0)
(9.01233e-41 -3.78103e-40 0)
(1.16048e-39 -5.1779e-39 0)
(1.49521e-38 -6.15093e-38 0)
(1.70288e-37 -5.97732e-37 0)
(2.00204e-36 3.37037e-38 0)
(1.92182e-35 1.92151e-34 0)
(2.02612e-34 6.97491e-33 0)
(1.3877e-33 1.61908e-31 0)
(1.1893e-32 2.81122e-30 0)
(1.12925e-38 -6.92254e-38 0)
(-5.56323e-39 -8.56887e-39 0)
(-7.21676e-40 -1.00054e-39 0)
(-9.88803e-41 -5.58016e-41 0)
(-7.11927e-42 2.78378e-42 0)
(-1.46579e-43 1.01447e-42 0)
(4.53735e-44 1.82762e-43 0)
(1.12584e-44 2.15655e-44 0)
(1.46665e-45 2.34721e-45 0)
(1.68772e-46 2.1574e-46 0)
(1.60619e-47 1.88751e-47 0)
(1.43976e-48 1.49188e-48 0)
(1.15907e-49 1.13089e-49 0)
(8.90717e-51 7.97963e-51 0)
(6.35579e-52 5.43984e-52 0)
(4.36418e-53 3.68848e-53 0)
(2.92172e-54 2.54213e-54 0)
(1.95072e-55 2.01901e-55 0)
(1.42005e-56 1.6884e-56 0)
(1.05826e-57 1.6005e-57 0)
(-5.13517e-58 1.2839e-58 0)
(-1.30853e-56 -3.5128e-58 0)
(-2.75039e-55 -7.85227e-57 0)
(-5.64329e-54 -1.64887e-55 0)
(-1.12583e-52 -3.38122e-54 0)
(-2.19211e-51 -6.74165e-53 0)
(-4.13743e-50 -1.31178e-51 0)
(-7.61736e-49 -2.47428e-50 0)
(-1.35382e-47 -4.55169e-49 0)
(-2.34683e-46 -8.08352e-48 0)
(-3.9044e-45 -1.39988e-46 0)
(-6.34121e-44 -2.32676e-45 0)
(-9.79978e-43 -3.77344e-44 0)
(-1.48261e-41 -5.82018e-43 0)
(-2.10627e-40 -8.76289e-42 0)
(-2.94896e-39 -1.22854e-40 0)
(-3.79389e-38 -1.64761e-39 0)
(-4.88088e-37 -1.81704e-38 0)
(-5.55257e-36 -1.20417e-37 0)
(-6.51358e-35 2.58691e-36 0)
(-6.24325e-34 1.40669e-34 0)
(-6.55783e-33 4.27865e-33 0)
(-4.48142e-32 9.49297e-32 0)
(-3.81061e-31 1.59691e-30 0)
(8.89302e-40 -5.08406e-39 0)
(-4.33716e-40 -6.55025e-40 0)
(-5.71458e-41 -8.88275e-41 0)
(-8.88271e-42 -6.33516e-42 0)
(-7.38016e-43 -1.19328e-43 0)
(-4.15135e-44 4.22286e-44 0)
(2.37023e-46 1.02698e-44 0)
(5.17735e-46 1.33143e-45 0)
(8.19501e-47 1.52775e-46 0)
(1.03033e-47 1.45166e-47 0)
(1.02803e-48 1.29967e-48 0)
(9.50761e-50 1.04543e-49 0)
(7.8197e-51 8.02839e-51 0)
(6.10402e-52 5.72659e-52 0)
(4.40785e-53 3.93144e-53 0)
(3.05185e-54 2.63306e-54 0)
(2.03342e-55 1.75886e-55 0)
(1.33372e-56 1.28254e-56 0)
(9.13056e-58 1.03242e-57 0)
(4.50993e-59 9.53925e-59 0)
(-3.81075e-58 3.1547e-59 0)
(-8.30945e-57 4.93453e-58 0)
(-1.74443e-55 1.06215e-56 0)
(-3.57661e-54 2.23215e-55 0)
(-7.13001e-53 4.58231e-54 0)
(-1.38709e-51 9.14652e-53 0)
(-2.6158e-50 1.78204e-51 0)
(-4.81094e-49 3.36564e-50 0)
(-8.54188e-48 6.20119e-49 0)
(-1.47887e-46 1.10299e-47 0)
(-2.45747e-45 1.91387e-46 0)
(-3.985e-44 3.18719e-45 0)
(-6.14966e-43 5.18283e-44 0)
(-9.28524e-42 8.02009e-43 0)
(-1.31678e-40 1.21568e-41 0)
(-1.83868e-39 1.73176e-40 0)
(-2.36022e-38 2.43881e-39 0)
(-3.02506e-37 3.18253e-38 0)
(-3.4313e-36 4.24637e-37 0)
(-4.00239e-35 5.31895e-36 0)
(-3.82076e-34 7.52036e-35 0)
(-3.97484e-33 1.03748e-33 0)
(-2.6992e-32 1.56332e-32 0)
(-2.24802e-31 1.82893e-31 0)
(-3.27489e-35 1.54083e-30 0)
(4.78139e-41 -4.78895e-40 0)
(-2.31824e-41 -6.29251e-41 0)
(-3.12854e-42 -9.82565e-42 0)
(-5.14981e-43 -8.25018e-43 0)
(-4.56343e-44 -4.85774e-44 0)
(-3.15937e-45 -1.15101e-46 0)
(-8.69568e-47 5.22143e-46 0)
(1.73626e-47 8.54341e-47 0)
(3.4983e-48 1.08769e-47 0)
(4.77392e-49 1.09221e-48 0)
(4.9561e-50 1.01409e-49 0)
(4.69741e-51 8.36344e-51 0)
(3.92886e-52 6.5409e-52 0)
(3.10352e-53 4.73075e-53 0)
(2.26201e-54 3.27737e-54 0)
(1.57674e-55 2.17517e-55 0)
(1.0551e-56 1.29349e-56 0)
(8.03614e-58 9.49546e-58 0)
(5.70443e-59 1.29324e-57 0)
(-5.37456e-59 2.33239e-58 0)
(-7.12582e-59 6.28153e-59 0)
(-1.31943e-57 3.44819e-58 0)
(-2.75876e-56 7.29691e-57 0)
(-5.6399e-55 1.53184e-55 0)
(-1.12098e-53 3.14122e-54 0)
(-2.1729e-52 6.26317e-53 0)
(-4.08263e-51 1.21871e-51 0)
(-7.4743e-50 2.29882e-50 0)
(-1.32099e-48 4.22919e-49 0)
(-2.27356e-47 7.51143e-48 0)
(-3.7561e-46 1.30097e-46 0)
(-6.04369e-45 2.1628e-45 0)
(-9.25698e-44 3.50902e-44 0)
(-1.38309e-42 5.41839e-43 0)
(-1.94208e-41 8.18723e-42 0)
(-2.67218e-40 1.16217e-40 0)
(-3.38393e-39 1.62504e-39 0)
(-4.24381e-38 2.09117e-38 0)
(-4.7207e-37 2.69369e-37 0)
(-5.31933e-36 3.09281e-36 0)
(-4.92756e-35 3.69595e-35 0)
(-4.82216e-34 3.73124e-34 0)
(-3.11115e-33 4.15526e-33 0)
(-2.25397e-32 3.21851e-32 0)
(-3.51611e-36 2.60583e-31 0)
(-1.79776e-40 -1.23217e-39 0)
(8.69548e-41 -1.6143e-40 0)
(1.17795e-41 -2.49425e-41 0)
(1.97482e-42 -2.07056e-42 0)
(1.78189e-43 -1.16629e-43 0)
(1.30245e-44 6.04871e-46 0)
(4.59308e-46 1.44044e-45 0)
(-5.03154e-47 2.28351e-46 0)
(-1.1757e-47 2.87253e-47 0)
(-1.66862e-48 2.86674e-48 0)
(-1.7616e-49 2.6516e-49 0)
(-1.68665e-50 2.18101e-50 0)
(-1.4198e-51 1.70259e-51 0)
(-1.12672e-52 1.22949e-52 0)
(-8.23999e-54 8.46981e-54 0)
(-5.75048e-55 5.43427e-55 0)
(-3.72711e-56 4.68132e-57 0)
(4.02997e-58 1.93387e-57 0)
(1.17215e-58 2.9061e-56 0)
(-1.32195e-57 5.35259e-57 0)
(-2.57105e-58 1.1108e-57 0)
(-2.72127e-58 1.98035e-58 0)
(-4.63391e-57 1.18442e-57 0)
(-9.47186e-56 2.44236e-56 0)
(-1.88446e-54 4.99329e-55 0)
(-3.6549e-53 9.92594e-54 0)
(-6.86852e-52 1.92433e-52 0)
(-1.25703e-50 3.61628e-51 0)
(-2.21976e-49 6.62197e-50 0)
(-3.81446e-48 1.17064e-48 0)
(-6.28731e-47 2.0154e-47 0)
(-1.00833e-45 3.33076e-46 0)
(-1.53762e-44 5.36149e-45 0)
(-2.28406e-43 8.21601e-44 0)
(-3.18254e-42 1.22826e-42 0)
(-4.33652e-41 1.72591e-41 0)
(-5.41918e-40 2.37691e-40 0)
(-6.6866e-39 3.01436e-39 0)
(-7.26417e-38 3.7893e-38 0)
(-7.96348e-37 4.23688e-37 0)
(-7.0573e-36 4.81991e-36 0)
(-6.61492e-35 4.56299e-35 0)
(-3.93062e-34 4.5917e-34 0)
(-2.75274e-33 3.13295e-33 0)
(-4.30688e-37 2.26338e-32 0)
(-2.70131e-39 -1.55695e-38 0)
(1.31685e-39 -2.00823e-39 0)
(1.73735e-40 -2.75048e-40 0)
(2.70532e-41 -1.99007e-41 0)
(2.25469e-42 -4.5399e-43 0)
(1.27982e-43 1.18921e-43 0)
(-5.06741e-46 3.02352e-44 0)