/*--------------------------------*- C++ -*----------------------------------*\
| =========                 |                                                 |
| \\      /  F ield         | OpenFOAM: The Open Source CFD Toolbox           |
|  \\    /   O peration     | Version:  2.4.0                                 |
|   \\  /    A nd           | Web:      www.OpenFOAM.org                      |
|    \\/     M anipulation  |                                                 |
\*---------------------------------------------------------------------------*/
FoamFile
{
    version     2.0;
    format      ascii;
    class       surfaceScalarField;
    location    "0.25";
    object      phi;
}
// * * * * * * * * * * * * * * * * * * * * * * * * * * * * * * * * * * * * * //

dimensions      [0 3 -1 0 0 0 0];

internalField   nonuniform List<scalar> 
3731
(
1.19288e-47
-5.38027e-45
-3.51832e-46
2.02365e-46
-7.59879e-44
-4.93735e-45
3.1272e-45
-1.08452e-42
-6.91833e-44
4.35688e-44
-1.34173e-41
-8.52787e-43
6.17717e-43
-1.75508e-40
-1.08785e-41
7.47579e-42
-1.81764e-39
-1.13021e-40
9.7191e-41
-2.20409e-38
-1.31737e-39
9.62681e-40
-1.73556e-37
-1.05948e-38
1.15493e-38
-2.06724e-36
-1.16559e-37
7.7702e-38
-9.32878e-36
-5.6675e-37
-5.15474e-40
-4.57907e-42
-3.5696e-39
-4.29274e-41
-4.84765e-39
-7.77944e-40
-2.82692e-37
-7.00458e-40
-3.83907e-48
1.5261e-39
2.82692e-37
1.5261e-39
4.84765e-39
-7.00458e-40
3.56967e-39
-7.77944e-40
5.14728e-40
-4.29315e-41
2.69773e-41
-4.51208e-42
2.48247e-42
-2.31803e-43
1.18504e-43
-1.72049e-44
-1.18505e-43
-1.66841e-45
-2.4825e-42
-1.7205e-44
-2.69777e-41
-2.31805e-43
-5.14737e-40
-4.51213e-42
-3.5698e-39
-4.29324e-41
-4.85014e-39
-7.77961e-40
-2.82719e-37
-7.00691e-40
-5.1722e-40
1.52157e-39
2.79095e-37
1.48293e-39
-5.1722e-40
-1.48293e-39
-2.82719e-37
-1.52157e-39
-4.85014e-39
7.00691e-40
-3.5698e-39
7.77961e-40
-5.14738e-40
4.29324e-41
-2.69868e-41
4.51208e-42
-2.61084e-42
2.30967e-43
-2.61898e-42
-4.7867e-47
-2.71052e-41
-2.31753e-43
-5.17093e-40
-4.5284e-42
-3.59428e-39
-4.3147e-41
-5.33777e-39
-7.82241e-40
-2.85772e-37
-7.39093e-40
-1.7681e-39
7.86787e-40
1.76809e-39
1.56495e-39
2.85772e-37
7.86786e-40
5.33543e-39
-7.39108e-40
3.57979e-39
-7.82384e-40
-4.59742e-41
-5.26784e-41
4.55315e-42
-3.90113e-40
4.93642e-41
-5.9651e-39
8.82207e-40
-1.09564e-38
7.92692e-40
-4.97522e-50
-1.72952e-39
1.09564e-38
-1.72952e-39
5.9651e-39
7.92692e-40
3.90123e-40
8.82207e-40
5.26521e-41
4.93773e-41
3.13045e-42
4.97413e-42
2.81336e-43
2.53372e-43
1.4391e-44
1.83185e-44
-1.43912e-44
1.76004e-45
-2.81339e-43
1.83186e-44
-3.13051e-42
2.53374e-43
-5.26532e-41
4.97418e-42
-3.90138e-40
4.93782e-41
-5.96538e-39
8.82226e-40
-1.09595e-38
7.92947e-40
-5.29346e-41
-1.72453e-39
1.05631e-38
-1.67989e-39
-5.29346e-41
1.67989e-39
-1.09595e-38
1.72453e-39
-5.96538e-39
-7.92947e-40
-3.90138e-40
-8.82226e-40
-5.26533e-41
-4.93782e-41
-3.1316e-42
-4.97413e-42
-2.96919e-43
-2.52489e-43
-2.97895e-43
4.97328e-47
-3.14598e-42
2.53319e-43
-5.29191e-41
4.99151e-42
-3.92986e-40
4.96133e-41
-6.01489e-39
8.86946e-40
-1.12967e-38
8.37331e-40
-5.62477e-39
-8.91955e-40
5.62477e-39
-1.7744e-39
1.12967e-38
-8.91955e-40
6.01459e-39
8.37343e-40
3.90782e-40
8.86836e-40
4.05749e-41
-7.21734e-42
5.40781e-43
-3.1516e-41
5.87712e-42
-3.22019e-40
8.90858e-41
-5.76123e-40
7.84273e-41
-2.6962e-49
-1.74022e-40
5.76123e-40
-1.74022e-40
3.22019e-40
7.84273e-41
3.15159e-41
8.90858e-41
7.18688e-42
5.87874e-42
4.79303e-43
5.95234e-43
5.00125e-44
3.27224e-44
2.67081e-45
2.37037e-45
-2.67085e-45
2.3848e-46
-5.00132e-44
2.37038e-45
-4.79314e-43
3.27227e-44
-7.1871e-42
5.95241e-43
-3.15188e-41
5.87886e-42
-3.22069e-40
8.90882e-41
-5.76606e-40
7.84601e-41
-7.23712e-42
-1.73425e-40
5.44125e-40
-1.68111e-40
-7.23712e-42
1.68111e-40
-5.76606e-40
1.73425e-40
-3.22069e-40
-7.84601e-41
-3.15188e-41
-8.90882e-41
-7.18711e-42
-5.87885e-42
-4.7953e-43
-5.95234e-43
-5.292e-44
-3.26028e-44
-5.31128e-44
6.7478e-48
-4.82199e-43
3.27153e-44
-7.23424e-42
5.97478e-43
-3.19478e-41
5.90921e-42
-3.28774e-40
8.96506e-41
-6.00884e-40
8.37413e-41
-2.97258e-40
-9.02504e-41
2.97258e-40
-1.79367e-40
6.00884e-40
-9.02504e-41
3.28769e-40
8.37427e-41
3.19386e-41
8.96365e-41
4.81939e-42
-5.84762e-43
9.03286e-44
-1.88334e-42
8.76664e-43
-1.32999e-41
1.27737e-41
-2.30878e-41
1.12028e-41
-3.41036e-50
-2.49592e-41
2.30878e-41
-2.49592e-41
1.32998e-41
1.12028e-41
1.88327e-42
1.27737e-41
5.81368e-43
8.77056e-43
4.27705e-44
9.95209e-44
4.68667e-45
5.68505e-45
2.62842e-46
4.34647e-46
-2.62845e-46
4.46613e-47
-4.68674e-45
4.3465e-46
-4.27716e-44
5.68511e-45
-5.8139e-43
9.95222e-44
-1.88356e-42
8.77079e-43
-1.33046e-41
1.27741e-41
-2.31309e-41
1.12085e-41
-5.86078e-43
-2.48592e-41
2.11615e-41
-2.40764e-41
-5.86078e-43
2.40764e-41
-2.31309e-41
2.48592e-41
-1.33046e-41
-1.12085e-41
-1.88356e-42
-1.27741e-41
-5.81391e-43
-8.77079e-43
-4.27933e-44
-9.95209e-44
-4.97334e-45
-5.66266e-45
-4.99262e-45
1.29474e-48
-4.3056e-44
5.68369e-45
-5.85793e-43
9.99318e-44
-1.92162e-42
8.82329e-43
-1.38429e-41
1.28679e-41
-2.4428e-41
1.19856e-41
-1.19596e-41
-1.29683e-41
1.19596e-41
-2.57473e-41
2.44281e-41
-1.29683e-41
1.38438e-41
1.19856e-41
1.93061e-42
1.28641e-41
7.0681e-43
-5.66554e-44
8.55876e-45
-1.28202e-43
8.01954e-44
-3.99128e-43
1.08933e-42
-6.19499e-43
9.46218e-43
-5.51943e-51
-2.12587e-42
6.19499e-43
-2.12587e-42
3.99126e-43
9.46218e-43
1.28185e-43
1.08933e-42
5.61769e-44
8.02383e-44
4.35056e-45
9.47209e-45
5.07933e-46
5.6758e-46
2.91219e-47
4.42009e-47
-2.91223e-47
4.68152e-48
-5.07941e-46
4.42013e-47
-4.35069e-45
5.67587e-46
-5.61794e-44
9.47224e-45
-1.28217e-43
8.02406e-44
-3.99637e-43
1.08937e-42
-6.23881e-43
9.46788e-43
-5.66874e-44
-2.11636e-42
4.86932e-43
-2.04506e-42
-5.66874e-44
2.04506e-42
-6.23881e-43
2.11636e-42
-3.99637e-43
-9.46788e-43
-1.28217e-43
-1.08937e-42
-5.61795e-44
-8.02406e-44
-4.35316e-45
-9.47209e-45
-5.39773e-46
-5.65233e-46
-5.41967e-46
1.3686e-49
-4.38227e-45
5.67436e-46
-5.66558e-44
9.5138e-45
-1.32057e-43
8.0764e-44
-4.51432e-43
1.09828e-42
-6.95379e-43
1.01751e-42
-3.23247e-43
-1.10783e-42
3.23247e-43
-2.19769e-42
6.95395e-43
-1.10783e-42
4.5173e-43
1.01751e-42
1.34307e-43
1.09783e-42
6.40911e-44
-4.30046e-45
9.13611e-46
-8.15994e-45
8.06437e-45
-6.91165e-45
1.07104e-43
-4.87809e-45
9.28013e-44
-5.27665e-52
-2.09049e-43
4.87808e-45
-2.09049e-43
6.91145e-45
9.28013e-44
8.15814e-45
1.07104e-43
4.25767e-45
8.07126e-45
3.46788e-46
1.00542e-45
4.16459e-47
6.15789e-47
2.45774e-48
4.91689e-48
-2.45778e-48
5.27561e-49
-4.16467e-47
4.91693e-48
-3.468e-46
6.15797e-47
-4.25788e-45
1.00543e-45
-8.16082e-45
8.07152e-45
-6.95332e-45
1.07109e-43
-5.22755e-45
9.28632e-44
-4.29954e-45
-2.08039e-43
-3.62953e-45
-2.00916e-43
-4.29954e-45
2.00916e-43
-5.22755e-45
2.08039e-43
-6.95332e-45
-9.28632e-44
-8.16082e-45
-1.07109e-43
-4.25789e-45
-8.07152e-45
-3.47011e-46
-1.00542e-45
-4.43366e-47
-6.13144e-47
-4.45238e-47
1.55897e-50
-3.49468e-46
6.15625e-47
-4.29687e-45
1.01005e-45
-8.46574e-45
8.12818e-45
-1.08615e-44
1.08053e-43
-9.08615e-45
9.99241e-44
-2.70338e-45
-1.09068e-43
2.70347e-45
-2.16229e-43
9.08797e-45
-1.09068e-43
1.08933e-44
9.99224e-44
8.69312e-45
1.07996e-43
6.37055e-45
-3.50745e-46
2.78322e-46
-6.06523e-46
6.19479e-46
2.92341e-46
8.26369e-45
1.13679e-45
7.12098e-45
2.74652e-52
-1.61231e-44
-1.13678e-45
-1.61231e-44
-2.92309e-46
7.12112e-45
6.06058e-46
8.26578e-45
3.47707e-46
6.47829e-46
2.89503e-47
8.27389e-47
3.56813e-48
5.21602e-48
2.13293e-49
4.21527e-49
-2.13297e-49
4.60916e-50
-3.56819e-48
4.21531e-49
-2.89513e-47
5.2161e-48
-3.47726e-46
8.27404e-47
-6.06291e-46
6.47852e-46
2.88722e-46
8.2662e-45
1.1076e-45
7.12636e-45
-3.51295e-46
-1.604e-44
-1.77202e-45
-1.54701e-44
-3.51295e-46
1.54701e-44
1.1076e-45
1.604e-44
2.88722e-46
-7.12636e-45
-6.06291e-46
-8.2662e-45
-3.47727e-46
-6.47852e-46
-2.89699e-47
-8.27389e-47
-3.80191e-48
-5.19291e-48
-3.81834e-48
1.36917e-51
-2.9183e-47
5.21458e-48
-3.51063e-46
8.31359e-47
-6.31653e-46
6.52647e-46
-2.98025e-47
8.3437e-45
8.52838e-46
7.69103e-45
5.76256e-46
-8.42726e-45
-5.76244e-46
-1.66979e-44
-8.52643e-46
-8.42727e-45
3.31274e-47
7.69082e-45
6.54686e-46
8.33851e-45
5.08313e-46
1.16885e-47
6.12742e-46
-4.0974e-47
-3.05176e-46
4.07011e-47
6.45683e-46
1.14009e-46
5.76739e-46
4.74859e-51
-1.31203e-45
-1.13944e-46
-1.31195e-45
-3.98116e-47
5.78282e-46
4.10238e-47
6.72614e-46
2.44364e-47
5.35567e-47
2.09038e-48
7.01187e-48
2.6105e-49
4.48103e-49
1.5884e-50
3.66287e-50
-1.58843e-50
4.03893e-51
-2.61055e-49
3.6629e-50
-2.09046e-48
4.4811e-49
-2.44377e-47
7.01199e-48
-4.10411e-47
5.35587e-47
3.95491e-47
6.7265e-46
1.11837e-46
5.78732e-46
-2.46989e-47
-1.3049e-45
-1.57076e-46
-1.25794e-45
-2.46989e-47
1.25794e-45
1.11837e-46
1.3049e-45
3.95491e-47
-5.78732e-46
-4.10411e-47
-6.7265e-46
-2.44378e-47
-5.35587e-47
-2.09185e-48
-7.01187e-48
-2.78472e-49
-4.46078e-49
-2.79703e-49
1.20485e-52
-2.10772e-48
4.47976e-49
-2.46816e-47
7.04634e-48
-4.2869e-47
5.39701e-47
1.72205e-47
6.79212e-46
9.55121e-47
6.2524e-46
5.82443e-47
-6.86295e-46
-5.82433e-47
-1.35932e-45
-9.54959e-47
-6.86296e-46
-1.69519e-47
6.25216e-46
4.46999e-47
6.78729e-46
4.17669e-47
1.62481e-45
5.52826e-44
1.51276e-47
-5.93598e-45
2.10676e-47
-4.01579e-46
1.01579e-47
1.9615e-47
7.5833e-50
-9.33647e-47
-9.01192e-48
-9.24206e-47
-3.34059e-48
4.0579e-47
2.89164e-48
4.73831e-47
1.7478e-48
3.86775e-48
1.51432e-49
5.12772e-49
1.91178e-50
3.33693e-50
1.1732e-51
2.74359e-51
-1.17322e-51
3.06148e-52
-1.91182e-50
2.74361e-51
-1.51438e-49
3.33698e-50
-1.7479e-48
5.12781e-49
-2.89291e-48
3.86791e-48
3.32156e-48
4.73859e-47
8.86314e-48
4.06142e-47
-1.76702e-48
-9.18651e-47
-1.20602e-47
-8.84794e-47
-1.76702e-48
8.84794e-47
8.86314e-48
9.18651e-47
3.32156e-48
-4.06142e-47
-2.89291e-48
-4.73859e-47
-1.7479e-48
-3.86791e-48
-1.51541e-49
-5.12772e-49
-2.04052e-50
-3.32158e-50
-2.04965e-50
9.14937e-54
-1.52714e-49
3.33597e-50
-1.76575e-48
5.15352e-49
-3.02512e-48
3.89853e-48
1.72647e-48
4.78651e-47
7.73853e-48
4.39665e-47
4.61811e-48
-4.83833e-47
-4.61802e-48
-9.57973e-47
-7.73722e-48
-4.83834e-47
-1.70507e-48
4.39644e-47
3.16984e-48
4.78273e-47
3.00785e-48
6.28339e-44
-1.58931e-43
3.96906e-45
-1.12479e-44
2.7735e-46
-6.56788e-46
1.57707e-47
-2.6152e-47
7.85058e-49
-8.94805e-48
-5.58553e-49
-7.61205e-48
-2.23045e-49
3.31116e-48
1.84944e-49
3.87552e-48
1.12574e-49
3.19982e-49
9.92321e-51
4.28662e-50
1.25975e-51
2.81422e-51
7.82186e-53
2.32318e-52
-7.82197e-53
2.606e-53
-1.25977e-51
2.32321e-52
-9.92348e-51
2.81427e-51
-1.12578e-49
4.28671e-50
-1.84957e-49
3.19998e-49
2.23462e-49
3.87585e-48
5.8638e-49
3.31641e-48
-1.13838e-49
-7.51201e-48
-7.91268e-49
-7.23229e-48
-1.13838e-49
7.23229e-48
5.8638e-49
7.51201e-48
2.23462e-49
-3.31641e-48
-1.84957e-49
-3.87585e-48
-1.12578e-49
-3.19998e-49
-9.93038e-51
-4.28663e-50
-1.3456e-51
-2.80116e-51
-1.3517e-51
7.79076e-55
-1.00086e-50
2.8134e-51
-1.13753e-49
4.30847e-50
-1.93613e-49
3.2258e-49
1.209e-49
3.91589e-48
5.15346e-49
3.59329e-48
3.05772e-49
-3.9592e-48
-3.05765e-49
-7.83743e-48
-5.15253e-49
-3.95921e-48
-1.19416e-49
3.5931e-48
2.03617e-49
3.91254e-48
2.48235e-49
1.65515e-36
-5.11025e-36
-1.1094e-35
1.70991e-36
2.19334e-38
-9.70578e-34
-9.27459e-36
-1.34637e-37
1.29025e-35
1.08501e-33
1.31802e-35
-3.2766e-36
4.10812e-37
7.61991e-36
1.25285e-35
2.69257e-37
1.85146e-36
1.46707e-35
9.20702e-37
1.91834e-36
-7.66999e-38
2.50842e-35
1.57153e-36
-8.05796e-38
-3.09946e-36
5.09795e-35
2.13436e-35
-3.2211e-36
-5.95168e-36
1.69604e-33
5.91637e-35
-6.18052e-36
-1.8958e-37
1.80648e-33
6.03671e-35
-1.96815e-37
5.94277e-36
2.26026e-35
6.17118e-36
1.52808e-36
3.427e-36
2.07181e-37
1.8727e-37
1.20581e-38
1.77472e-38
1.2249e-39
8.66026e-40
2.4232e-39
5.03479e-41
4.89678e-38
-2.01649e-40
5.41314e-37
-2.90921e-39
1.08995e-35
-6.11646e-38
7.55362e-35
-6.17675e-37
1.10468e-34
-1.19124e-35
6.24524e-33
-1.13532e-35
1.10468e-34
1.13532e-35
7.55358e-35
1.19124e-35
1.08952e-35
6.17227e-37
4.6014e-37
3.57847e-38
-2.83989e-38
-1.05179e-36
7.97303e-38
-5.69449e-35
8.13359e-38
-1.05469e-36
4.21647e-39
-2.53794e-38
4.17356e-40
-4.47629e-40
2.08297e-41
1.46418e-43
1.53133e-41
3.49785e-41
2.76884e-40
1.13928e-37
-3.64167e-37
1.27963e-38
-1.06073e-38
7.75568e-40
-3.46616e-40
-1.2546e-41
6.47018e-41
-8.02191e-39
-3.00182e-37
-2.92195e-40
-8.3206e-39
3.02963e-42
-2.39597e-40
-7.65346e-42
3.64785e-42
1.3288e-38
4.22893e-37
1.29691e-38
1.14905e-38
9.68538e-40
2.90553e-40
7.53871e-42
1.3678e-40
2.01655e-38
4.0836e-37
2.84779e-39
1.13218e-38
1.98096e-40
3.07639e-40
8.97229e-42
1.98792e-41
1.33079e-37
5.44185e-38
1.48371e-38
2.56844e-39
9.13915e-40
1.68808e-40
9.00928e-42
7.60309e-41
-6.52775e-39
9.82526e-38
-7.69685e-40
4.77171e-39
-5.12187e-41
3.2022e-40
1.70802e-41
-4.35125e-42
-2.26702e-37
7.11084e-37
-2.51833e-38
2.019e-38
-1.55874e-39
5.15473e-40
1.28788e-41
-1.28933e-40
-4.3011e-37
1.85888e-36
-4.76933e-38
4.83015e-38
-2.93479e-39
8.06349e-40
8.47527e-43
-2.42503e-40
-1.36408e-38
1.89518e-36
-1.5117e-39
4.91842e-38
-9.28245e-41
8.14996e-40
4.372e-43
-7.66744e-42
4.29361e-37
7.48983e-37
4.76096e-38
2.10952e-38
2.92932e-39
5.21932e-40
1.22745e-41
2.42049e-40
2.4109e-37
9.0039e-38
2.67909e-38
4.21794e-39
1.65812e-39
2.72131e-40
1.43022e-41
1.37182e-40
1.5131e-38
2.06078e-38
1.74781e-39
1.22292e-39
1.15767e-40
9.69777e-41
5.47424e-42
9.77388e-42
1.46499e-39
1.33768e-39
1.87698e-40
8.67708e-41
1.28465e-41
7.15612e-42
4.22832e-43
1.1367e-42
7.59756e-41
1.47489e-40
1.0086e-41
1.09438e-41
7.17968e-43
9.22622e-43
5.9553e-44
6.4692e-44
-4.26916e-42
1.96042e-40
-1.82848e-43
2.6492e-41
-7.41074e-44
1.88921e-42
1.64174e-43
-5.05833e-45
-2.11414e-40
3.64552e-39
-1.94574e-41
4.82538e-40
-2.65499e-42
3.2668e-41
2.80776e-42
-2.01732e-43
-3.00968e-39
3.99114e-38
-2.74064e-40
4.59825e-39
-3.56156e-41
2.98552e-40
2.42596e-41
-2.66714e-42
-6.28815e-38
7.07744e-37
-5.33298e-39
7.36169e-38
-6.71606e-40
4.36648e-39
3.41927e-40
-4.80723e-41
-6.33702e-37
4.82758e-36
-5.2474e-38
2.76426e-37
-5.9307e-39
1.20679e-38
7.07357e-40
-4.10391e-40
-1.20893e-35
7.67211e-35
-8.66177e-37
2.67205e-36
-9.49291e-38
7.12893e-38
1.37687e-39
-6.13846e-39
-1.15157e-35
1.4513e-34
-8.18781e-37
4.93021e-36
-8.96369e-38
1.26641e-37
1.97969e-39
-5.77367e-39
1.15157e-35
7.67211e-35
8.1878e-37
2.67207e-36
8.96368e-38
7.12913e-38
1.37712e-39
5.77366e-39
1.20893e-35
4.82799e-36
8.66173e-37
2.76873e-37
9.49269e-38
1.21058e-38
7.12144e-40
6.13825e-39
6.33432e-37
7.1195e-37
5.23989e-38
7.81239e-38
5.89978e-39
4.73979e-39
3.84218e-40
4.07447e-40
4.86547e-38
1.21038e-37
3.11633e-39
9.07058e-38
-1.2656e-41
6.46424e-39
7.01516e-40
-1.1226e-41
-5.6389e-37
8.09634e-38
-4.8009e-38
8.25097e-38
-7.55705e-39
5.86113e-39
6.42351e-40
-5.79459e-40
-1.36251e-36
-7.71298e-38
-9.52596e-37
-8.20012e-38
-1.46557e-37
-5.82655e-39
-6.38875e-40
-9.96499e-39
-5.6689e-37
-8.11136e-38
-4.82821e-38
-8.61056e-38
-7.59212e-39
-6.16415e-39
-6.67117e-40
-5.8142e-40
-1.42262e-38
-4.20548e-39
-2.21589e-39
-4.50566e-39
-6.77015e-40
-3.5458e-40
9.94266e-41
-4.69284e-41
-2.67673e-40
-4.14403e-40
-5.99548e-41
-4.22609e-40
1.31548e-40
3.14935e-40
2.74559e-39
2.95318e-40
2.27899e-41
-3.35659e-42
2.03556e-40
1.8183e-40
2.30869e-39
3.09771e-39
2.68416e-38
5.42539e-39
4.96554e-40
2.4066e-40
4.16165e-39
3.03485e-39
5.09343e-38
4.96592e-38
4.42311e-37
1.57865e-37
4.14328e-39
4.0169e-38
5.57621e-37
3.35809e-36
3.23964e-42
-7.24569e-43
1.92434e-43
-2.70661e-44
8.92587e-45
-1.58092e-45
4.57907e-46
-7.50174e-47
1.97368e-47
-4.37559e-48
8.58315e-49
-4.82138e-49
2.03229e-50
1.23118e-49
1.42713e-50
1.54056e-49
7.85783e-51
1.29442e-50
6.93891e-52
1.76148e-51
8.80911e-53
1.17233e-52
5.48647e-54
9.76105e-54
-5.48387e-54
1.10562e-54
-8.80185e-53
9.76191e-54
-6.91802e-52
1.17257e-52
-7.8024e-51
1.76208e-51
-1.27857e-50
1.29596e-50
1.57177e-50
1.54418e-49
4.1015e-50
1.31807e-49
-7.89044e-51
-2.99174e-49
-5.51902e-50
-2.87869e-49
-7.89044e-51
2.87869e-49
4.1015e-50
2.99174e-49
1.57177e-50
-1.31807e-49
-1.27857e-50
-1.54418e-49
-7.80243e-51
-1.29596e-50
-6.92285e-52
-1.76205e-51
-9.40354e-53
-1.167e-52
-9.44619e-53
3.31901e-56
-6.97766e-52
1.1722e-52
-7.88448e-51
1.77122e-51
-1.3389e-50
1.30671e-50
8.61359e-51
1.56062e-49
3.61257e-50
1.42994e-49
2.13933e-50
-1.57843e-49
-2.13928e-50
-3.12359e-49
-3.61188e-50
-1.57843e-49
-8.50206e-51
1.42985e-49
1.41515e-50
1.55918e-49
1.00087e-50
2.94037e-43
-4.81039e-43
2.80222e-44
-2.32003e-44
1.66878e-45
-1.48317e-45
1.11146e-46
-7.1576e-47
5.68499e-48
-3.89649e-48
3.08448e-49
-1.85296e-49
1.36221e-50
-2.48352e-51
1.13907e-51
6.3012e-51
3.14043e-52
5.46397e-52
2.68454e-53
7.54284e-53
3.33094e-54
5.05019e-54
2.08174e-55
4.19197e-55
-2.06354e-55
4.75413e-56
-3.28524e-54
4.19925e-55
-2.56589e-53
5.07075e-54
-2.85973e-52
7.59636e-53
-4.67366e-52
5.60472e-52
5.78025e-52
6.63468e-51
1.50439e-51
5.65633e-51
-2.89259e-52
-1.2851e-50
-2.02329e-51
-1.23619e-50
-2.89259e-52
1.23619e-50
1.50439e-51
1.2851e-50
5.78025e-52
-5.65633e-51
-4.67366e-52
-6.63468e-51
-2.85974e-52
-5.60471e-52
-2.56771e-53
-7.59621e-53
-3.51179e-54
-5.04682e-54
-3.52789e-54
1.41902e-57
-2.58834e-53
5.06917e-54
-2.89034e-52
7.63567e-53
-4.89719e-52
5.65122e-52
3.17954e-52
6.70554e-51
1.3265e-51
6.1404e-51
7.85095e-52
-6.78232e-51
-7.85075e-52
-1.34213e-50
-1.32623e-51
-6.78234e-51
-3.13624e-52
6.13998e-51
5.19174e-52
6.6991e-51
4.336e-52
7.96035e-42
3.92991e-43
6.29704e-43
1.84708e-44
3.30666e-44
1.23334e-45
2.05435e-45
6.09001e-47
9.83121e-47
3.39964e-48
5.17067e-48
1.52716e-49
2.27252e-49
7.56145e-51
1.05305e-50
5.51972e-52
4.38134e-52
3.41653e-53
1.87682e-53
3.3801e-54
7.97903e-55
2.13338e-55
3.34912e-56
1.67752e-56
-7.09893e-57
1.85651e-57
-1.2703e-55
1.60936e-56
-9.95688e-55
1.94171e-55
-1.10578e-53
2.88429e-54
-1.80529e-53
2.12054e-53
2.23667e-53
2.47996e-52
5.816e-53
2.10997e-52
-1.11849e-53
-4.80181e-52
-7.82129e-53
-4.61682e-52
-1.11849e-53
4.61682e-52
5.816e-53
4.80181e-52
2.23667e-53
-2.10997e-52
-1.80529e-53
-2.47996e-52
-1.10578e-53
-2.12054e-53
-9.96392e-55
-2.88423e-54
-1.35834e-55
-1.93249e-55
-1.36454e-55
5.45973e-59
-1.00438e-54
1.94111e-55
-1.11762e-53
2.89935e-54
-1.89208e-53
2.13835e-53
1.2314e-53
2.50685e-52
5.13007e-53
2.29301e-52
3.03582e-53
-2.53601e-52
-3.03574e-53
-5.01761e-52
-5.12897e-53
-2.53602e-52
-1.21415e-53
2.29284e-52
2.01087e-53
2.50432e-52
1.63946e-53
1.10239e-42
5.09255e-43
7.55052e-44
2.41709e-44
3.84986e-45
1.5485e-45
2.21661e-46
7.51426e-47
1.04034e-47
4.09259e-48
5.22638e-49
1.82315e-49
2.26594e-50
8.63308e-51
1.01784e-51
3.63615e-52
4.12984e-53
1.57819e-53
1.70289e-54
6.80802e-55
6.69539e-56
2.93954e-56
2.62306e-57
1.39566e-57
-2.01636e-58
9.79908e-59
-4.47767e-57
6.21128e-58
-3.51257e-56
7.52707e-57
-3.86741e-55
1.11611e-55
-6.30115e-55
8.24455e-55
7.82443e-55
9.59724e-54
2.03172e-54
8.1577e-54
-3.91222e-55
-1.85787e-53
-2.73239e-54
-1.7859e-53
-3.91222e-55
1.7859e-53
2.03172e-54
1.85787e-53
7.82443e-55
-8.1577e-54
-6.30115e-55
-9.59724e-54
-3.86742e-55
-8.24455e-55
-3.51506e-56
-1.11609e-55
-4.79152e-57
-7.49154e-57
-4.81346e-57
2.08975e-60
-3.5434e-56
7.52473e-57
-3.90914e-55
1.12191e-55
-6.60733e-55
8.31361e-55
4.31161e-55
9.70128e-54
1.79314e-54
8.86989e-54
1.06097e-54
-9.8141e-54
-1.06094e-54
-1.94177e-53
-1.79274e-54
-9.81414e-54
-4.24963e-55
8.8692e-54
7.036e-55
9.69123e-54
6.38697e-55
3.77479e-42
6.05813e-43
2.23061e-43
2.77728e-44
1.03106e-44
1.44182e-45
5.27118e-46
6.24144e-47
2.26641e-47
2.88513e-48
1.03069e-48
1.16641e-49
4.12869e-50
4.87728e-51
1.70065e-51
1.84712e-52
6.36443e-53
7.0938e-54
2.40516e-54
2.54309e-55
8.44066e-56
9.1426e-57
2.95588e-57
3.17572e-58
8.69156e-59
1.22687e-59
-1.55491e-58
2.22581e-59
-1.25006e-57
2.67129e-58
-1.37298e-56
3.93838e-57
-2.2351e-56
2.91317e-56
2.77777e-56
3.35973e-55
7.20861e-56
2.85095e-55
-1.38885e-56
-6.50177e-55
-9.69483e-56
-6.24738e-55
-1.38885e-56
6.24738e-55
7.20861e-56
6.50177e-55
2.77777e-56
-2.85095e-55
-2.2351e-56
-3.35973e-55
-1.37299e-56
-2.91317e-56
-1.25103e-57
-3.9383e-57
-1.69666e-58
-2.6586e-58
-1.70439e-58
7.38978e-62
-1.26108e-57
2.67038e-58
-1.38776e-56
3.95892e-57
-2.34416e-56
2.93768e-56
1.53098e-56
3.39643e-55
6.36346e-56
3.10265e-55
3.76499e-56
-3.43624e-55
-3.76489e-56
-6.79823e-55
-6.36201e-56
-3.43625e-55
-1.50865e-56
3.1024e-55
2.50054e-56
3.3928e-55
2.25893e-56
-2.2541e-43
1.13446e-42
-1.33572e-44
5.13704e-44
-6.30895e-46
2.62146e-45
-3.21e-47
1.11874e-46
-1.39341e-48
5.08225e-48
-6.27995e-50
2.02401e-49
-2.51991e-51
8.3165e-51
-1.0259e-52
3.09517e-52
-3.82377e-54
1.16535e-53
-1.42486e-55
4.06403e-55
-4.95142e-57
1.41568e-56
-1.70396e-58
4.64052e-58
-5.8917e-60
1.51145e-59
-5.40327e-60
1.23463e-60
-4.13199e-59
9.46061e-60
-4.50872e-58
1.39145e-58
-7.32773e-58
1.03529e-57
9.12225e-58
1.18968e-56
2.36466e-57
1.00871e-56
-4.56099e-58
-2.30184e-56
-3.18042e-57
-2.21136e-56
-4.56099e-58
2.21136e-56
2.36466e-57
2.30184e-56
9.12225e-58
-1.00871e-56
-7.32773e-58
-1.18968e-56
-4.50874e-58
-1.03529e-57
-4.13432e-59
-1.39142e-58
-5.58901e-60
-9.40232e-60
-5.61442e-60
2.57642e-63
-4.16752e-59
9.44368e-60
-4.55738e-58
1.39867e-58
-7.68831e-58
1.04396e-57
5.03057e-58
1.20265e-56
2.08835e-57
1.09825e-56
1.23547e-57
-1.21671e-56
-1.23543e-57
-2.40719e-56
-2.08786e-57
-1.21672e-56
-4.95606e-58
1.09816e-56
8.21434e-58
1.20134e-56
8.04612e-58
-6.40412e-42
4.32968e-43
-3.7594e-43
1.50349e-44
-1.73453e-44
6.98708e-46
-8.80646e-46
2.90872e-47
-3.77384e-47
1.31192e-48
-1.70413e-48
5.20129e-50
-6.79653e-50
2.13276e-51
-2.77962e-51
7.91403e-53
-1.03468e-52
2.97436e-54
-3.88095e-54
1.03444e-55
-1.35237e-55
3.59633e-57
-4.69464e-57
1.1752e-58
-1.5359e-58
3.80762e-60
-5.1385e-60
1.42434e-61
-1.5111e-60
3.15707e-61
-1.47991e-59
4.58094e-60
-2.40268e-59
3.4229e-59
2.99314e-59
3.90498e-58
7.7548e-59
3.30626e-58
-1.49652e-59
-7.55327e-58
-1.04303e-58
-7.25392e-58
-1.49652e-59
7.25392e-58
7.7548e-59
7.55327e-58
2.99314e-59
-3.30626e-58
-2.40267e-59
-3.90498e-58
-1.47945e-59
-3.4229e-59
-1.35907e-60
-4.58074e-60
-1.82601e-61
-3.10702e-61
-1.83426e-61
8.43772e-65
-1.36992e-60
3.12063e-61
-1.49534e-59
4.60457e-60
-2.52131e-59
3.45158e-59
1.65078e-59
3.94765e-58
6.84984e-59
3.60248e-58
4.05227e-59
-3.99395e-58
-4.05214e-59
-7.90157e-58
-6.84821e-59
-3.99397e-58
-1.62613e-59
3.60217e-58
2.69749e-59
3.94326e-58
2.66512e-59
-1.20011e-41
-1.15653e-42
-7.03997e-43
-6.52531e-44
-3.23981e-44
-3.5174e-45
-1.64396e-45
-1.5172e-46
-7.03158e-47
-6.90245e-48
-3.17367e-48
-2.74764e-49
-1.26391e-49
-1.12751e-50
-5.16685e-51
-4.19132e-52
-1.92113e-52
-1.57567e-53
-7.203e-54
-5.4866e-55
-2.50771e-55
-1.90773e-56
-8.70209e-57
-6.23877e-58
-2.84467e-58
-2.02047e-59
-9.2036e-60
-6.21254e-61
-3.25162e-61
-8.6806e-63
-4.65145e-61
1.48855e-61
-7.40726e-61
1.12411e-60
9.23698e-61
1.27865e-59
2.39096e-60
1.08183e-59
-4.61838e-61
-2.47281e-59
-3.21602e-60
-2.3744e-59
-4.61838e-61
2.3744e-59
2.39096e-60
2.47281e-59
9.23705e-61
-1.08183e-59
-7.40477e-61
-1.27865e-59
-4.56573e-61
-1.12413e-60
-4.21372e-62
-1.494e-61
-5.63226e-63
-1.01372e-62
-5.65759e-63
2.6935e-66
-4.24726e-62
1.01813e-62
-4.61474e-61
1.50172e-61
-7.77289e-61
1.13349e-60
5.09635e-61
1.29257e-59
2.11269e-60
1.17922e-59
1.24975e-60
-1.30767e-59
-1.24971e-60
-2.58718e-59
-2.11218e-60
-1.30767e-59
-5.01962e-61
1.17911e-59
8.32723e-61
1.29112e-59
8.77488e-61
-3.7894e-43
-1.20877e-42
-2.22234e-44
-6.78815e-44
-1.02175e-45
-3.65532e-45
-5.18354e-47
-1.57634e-46
-2.21553e-48
-7.17117e-48
-9.99781e-50
-2.85454e-49
-3.97944e-51
-1.17137e-50
-1.62651e-52
-4.35431e-52
-6.04501e-54
-1.63694e-53
-2.26613e-55
-5.69985e-55
-7.88669e-57
-1.98187e-56
-2.73636e-58
-6.48114e-58
-8.9424e-60
-2.09895e-59
-2.89274e-61
-6.46202e-61
-1.01829e-62
-1.92824e-62
-1.42204e-62
4.0359e-63
-2.26187e-62
3.48492e-62
2.82227e-62
3.94324e-61
7.30194e-62
3.33224e-61
-1.4111e-62
-7.62387e-61
-9.82181e-62
-7.31837e-61
-1.4111e-62
7.31837e-61
7.30194e-62
7.62387e-61
2.82229e-62
-3.33223e-61
-2.26109e-62
-3.94324e-61
-1.39511e-62
-3.48655e-62
-1.28926e-63
-4.60511e-63
-1.7112e-64
-3.12607e-64
-1.71883e-64
-5.07988e-67
-1.29945e-63
3.14499e-64
-1.41e-62
4.62881e-63
-2.37383e-62
3.51549e-62
1.55722e-62
3.98614e-61
6.45307e-62
3.63457e-61
3.81721e-62
-4.03268e-61
-3.81709e-62
-7.97859e-61
-6.4515e-62
-4.03269e-61
-1.5337e-62
3.63425e-61
2.546e-62
3.9816e-61
2.72803e-62
1.19778e-41
3.65589e-43
7.02627e-43
1.16761e-44
3.23335e-44
5.22806e-46
1.64067e-45
2.15113e-47
7.01725e-47
9.67026e-49
3.16718e-48
3.82339e-50
1.26129e-49
1.56618e-51
5.15609e-51
5.80075e-53
1.91708e-52
2.17828e-54
7.18777e-54
7.56388e-56
2.50236e-55
2.62748e-57
8.68344e-57
8.57376e-59
2.83852e-58
2.7743e-60
9.17837e-60
8.52681e-62
2.82397e-61
2.59332e-63
8.14876e-63
2.14449e-64
-4.08011e-64
1.06563e-63
8.27273e-64
1.20278e-62
2.12056e-63
1.01624e-62
-4.10082e-64
-2.32497e-62
-2.85219e-63
-2.2317e-62
-4.10063e-64
2.2318e-62
2.12035e-63
2.32749e-62
8.20171e-64
-1.0155e-62
-6.56378e-64
-1.20274e-62
-4.05432e-64
-1.06732e-63
-3.75955e-65
-1.39468e-64
-4.9934e-66
1.19391e-65
-4.98079e-66
-2.15829e-65
-3.78727e-65
7.83315e-66
-4.09759e-64
1.40226e-64
-6.89279e-64
1.07529e-63
4.52657e-64
1.21621e-62
1.87439e-63
1.10873e-62
1.10873e-63
-1.23039e-62
-1.10866e-63
-2.4337e-62
-1.87396e-63
-1.2276e-62
-4.45832e-64
1.10809e-62
7.40135e-64
1.21438e-62
8.17944e-64
6.81385e-42
9.42481e-43
4.00032e-43
4.2557e-44
1.84565e-44
2.16738e-45
9.37108e-46
9.23668e-47
4.01569e-47
4.18964e-48
1.81337e-48
1.6663e-49
7.23195e-50
6.83641e-51
2.95768e-51
2.54075e-52
1.10092e-52
9.55124e-54
4.12934e-54
3.32536e-55
1.43887e-55
1.15623e-56
4.99478e-57
3.78085e-58
1.63391e-58
1.22446e-59
5.28497e-60
3.76972e-61
1.62722e-61
1.14311e-62
4.91823e-63
3.27245e-64
1.24599e-64
-6.1807e-65
2.78593e-65
3.04966e-64
6.07686e-65
4.47697e-64
-1.18996e-65
-5.63067e-64
-8.09917e-65
-6.32933e-64
-1.10099e-65
6.64173e-64
6.01049e-65
1.44618e-63
2.27286e-65
-1.7708e-64
-1.89302e-65
-2.90472e-64
-1.09735e-65
-7.10854e-65
-1.06181e-66
1.70677e-66
-1.47349e-66
7.46677e-64
-1.94832e-67
-7.52304e-64
-3.96164e-67
-5.89746e-65
-1.15775e-65
-3.53676e-66
-1.95399e-65
4.05309e-65
1.28547e-65
4.61759e-64
5.33551e-65
4.41664e-64
3.2454e-65
-4.89767e-64
-3.09653e-65
-6.96637e-64
-5.44345e-65
4.94268e-64
-1.40115e-65
2.36642e-64
2.18318e-65
3.04009e-64
-6.20992e-64
5.0569e-43
3.72006e-43
3.00181e-44
1.69894e-44
1.4219e-45
8.67945e-46
7.27132e-47
3.71199e-47
3.17273e-48
1.68519e-48
1.43989e-49
6.71779e-50
5.81683e-51
2.75788e-51
2.38766e-52
1.02674e-52
8.97114e-54
3.86181e-54
3.37421e-55
1.34633e-55
1.18391e-56
4.68342e-57
4.11849e-58
1.53308e-58
1.3542e-59
4.96704e-60
4.38746e-61
1.53045e-61
1.35575e-62
4.60015e-63
4.07052e-64
-1.88179e-64
1.78819e-65
-3.73224e-63
1.30117e-65
-1.61928e-63
2.2259e-66
5.59393e-63
-7.00138e-66
4.06598e-63
1.86306e-65
5.0363e-64
2.61604e-65
4.63306e-64
-1.76273e-65
2.65135e-62
-2.63136e-65
4.12948e-63
-6.67907e-66
2.11852e-63
2.25237e-65
-1.47902e-63
6.83013e-67
7.35072e-65
-4.8569e-65
2.57688e-62
-1.92812e-66
-2.59634e-62
2.51427e-65
-2.02605e-63
5.20008e-66
-2.60213e-64
6.11252e-66
3.34867e-64
-3.42881e-66
3.97253e-63
-8.64353e-66
4.34793e-63
2.79545e-65
-4.87453e-63
2.6514e-65
1.93304e-64
-3.20854e-65
2.94214e-62
-4.58902e-65
-3.23625e-63
2.419e-65
-1.65915e-63
-2.20952e-62
6.01338e-44
2.91535e-44
3.63661e-45
1.36849e-45
1.73863e-46
7.04233e-47
8.9592e-48
3.0668e-48
3.92082e-49
1.39864e-49
1.78266e-50
5.64566e-51
7.19595e-52
2.32472e-52
2.94874e-53
8.73121e-54
1.10435e-54
3.29055e-55
4.13692e-56
1.1543e-56
1.4443e-57
4.02051e-58
4.99583e-59
1.32177e-59
1.63236e-60
4.28544e-61
5.25116e-62
1.31419e-62
1.4927e-63
-1.09943e-63
-9.93223e-65
-1.12049e-62
2.38567e-64
-1.29999e-61
4.44859e-64
-5.67034e-62
1.99215e-65
1.94322e-61
-2.52531e-64
1.42042e-61
7.11739e-64
1.74957e-62
9.24354e-64
1.00774e-62
-6.58317e-64
8.59804e-61
-9.37608e-64
1.38536e-61
-2.2744e-64
7.33483e-62
7.90923e-64
-5.20918e-62
3.12987e-65
-2.18843e-63
-1.68606e-63
8.40005e-61
-6.62775e-65
-8.46769e-61
8.76503e-64
-6.57284e-62
1.99282e-64
-8.43003e-63
2.45101e-64
1.16328e-62
-1.40913e-64
1.37789e-61
-3.79208e-64
1.5068e-61
9.423e-64
-1.69965e-61
9.58311e-64
2.02726e-63
-1.07299e-63
9.62108e-61
-1.57144e-63
-1.17782e-61
8.2491e-64
-5.4423e-62
-7.13497e-61
3.50838e-45
4.11133e-45
2.14102e-46
2.05997e-46
1.0393e-47
1.05448e-47
5.38431e-49
4.80368e-49
2.37976e-50
2.17917e-50
1.0855e-51
9.08094e-52
4.41043e-53
3.72317e-53
1.81063e-54
1.4301e-54
6.80981e-56
5.37065e-56
2.55317e-57
1.91337e-57
8.93679e-59
6.6424e-59
3.09159e-60
2.20554e-60
1.01105e-61
7.09413e-62
2.86142e-63
-1.28732e-63
-4.23281e-63
-5.18049e-62
-5.39367e-63
-3.84206e-61
8.65191e-63
-4.48102e-60
1.62292e-62
-1.9564e-60
7.02308e-64
6.69888e-60
-9.39848e-63
4.89224e-60
2.40538e-62
5.80815e-61
3.19728e-62
1.76637e-61
-2.22674e-62
2.78198e-59
-3.23108e-62
4.60436e-60
-8.27851e-63
2.50634e-60
2.71461e-62
-1.81739e-60
1.31e-63
-2.25222e-61
-5.80113e-62
2.73106e-59
-2.25343e-63
-2.75426e-59
3.02442e-62
-2.11537e-60
7.10034e-63
-2.70847e-61
8.8781e-63
3.99433e-61
-5.20589e-63
4.74349e-60
-1.39824e-62
5.14081e-60
3.25157e-62
-5.88776e-60
3.32383e-62
-1.00287e-61
-3.72512e-62
3.13536e-59
-5.37341e-62
-4.21589e-60
2.85729e-62
-1.75994e-60
-2.29859e-59
-5.11552e-46
1.04095e-44
-2.74185e-47
6.31282e-46
-1.89114e-48
3.08455e-47
-9.22252e-50
1.59676e-48
-5.10145e-51
7.09411e-50
-2.27153e-52
3.23631e-51
-1.07554e-53
1.31995e-52
-4.3983e-55
5.42149e-54
-1.84488e-56
2.04414e-55
-6.96806e-58
7.6653e-57
-2.64303e-59
2.68254e-58
-9.2641e-61
9.25696e-60
-3.39054e-62
2.91391e-61
-1.46398e-62
-1.04918e-61
-1.50519e-61
-1.69669e-60
-1.87537e-61
-1.2469e-59
3.00549e-61
-1.4582e-58
5.63804e-61
-6.36905e-59
2.36067e-62
2.1801e-58
-3.33013e-61
1.59119e-58
7.63761e-61
1.81617e-59
1.04462e-60
7.1893e-62
-7.07492e-61
8.39308e-58
-1.05129e-60
1.44144e-58
-2.86875e-61
8.07929e-59
8.78442e-61
-5.98822e-59
5.13715e-62
-1.22893e-59
-1.88313e-60
8.28456e-58
-7.249e-62
-8.35997e-58
9.85283e-61
-6.38735e-59
2.40838e-61
-8.12457e-60
3.07458e-61
1.30137e-59
-1.81871e-61
1.54318e-58
-4.9212e-61
1.67249e-58
1.05812e-60
-1.92406e-58
1.08937e-60
-8.93637e-60
-1.22293e-60
9.54437e-58
-1.73142e-60
-1.42298e-58
9.34707e-61
-5.35376e-59
-6.89143e-58
-1.5663e-44
1.7272e-43
-8.66123e-46
1.04191e-44
-5.28987e-47
4.99349e-46
-2.59751e-48
2.57789e-47
-1.34342e-49
1.13074e-48
-5.96972e-51
5.15074e-50
-2.71349e-52