/*--------------------------------*- C++ -*----------------------------------*\
| =========                 |                                                 |
| \\      /  F ield         | OpenFOAM: The Open Source CFD Toolbox           |
|  \\    /   O peration     | Version:  2.4.0                                 |
|   \\  /    A nd           | Web:      www.OpenFOAM.org                      |
|    \\/     M anipulation  |                                                 |
\*---------------------------------------------------------------------------*/
FoamFile
{
    version     2.0;
    format      ascii;
    class       volVectorField;
    location    "0.25";
    object      U;
}
// * * * * * * * * * * * * * * * * * * * * * * * * * * * * * * * * * * * * * //

dimensions      [0 1 -1 0 0 0 0];

internalField   nonuniform List<vector> 
1915
(
(8.02013e-45 -7.05056e-42 0)
(3.32421e-43 -4.66767e-43 0)
(7.77779e-44 -1.09056e-40 0)
(5.69759e-42 -7.12578e-42 0)
(1.10576e-42 -1.53077e-39 0)
(8.81429e-41 -9.94225e-41 0)
(1.38205e-41 -2.18733e-38 0)
(1.22961e-39 -1.39356e-39 0)
(1.6949e-40 -2.67672e-37 0)
(1.74598e-38 -1.70096e-38 0)
(1.60942e-39 -3.5198e-36 0)
(2.11745e-37 -2.17748e-37 0)
(1.49125e-38 -3.5705e-35 0)
(2.75886e-36 -2.22126e-36 0)
(5.45537e-38 -4.39939e-34 0)
(2.74198e-35 -2.62077e-35 0)
(-6.61686e-38 -3.30541e-33 0)
(3.29677e-34 -2.02428e-34 0)
(-7.35184e-36 -4.13057e-32 0)
(2.22492e-33 -2.31291e-33 0)
(-7.2564e-37 -1.77347e-37 0)
(-1.39857e-35 -1.78324e-36 0)
(-8.78887e-35 -3.23624e-35 0)
(-2.06083e-33 -2.91364e-35 0)
(-1.98629e-33 6.34762e-35 0)
(1.98629e-33 6.34762e-35 0)
(2.06083e-33 -2.91364e-35 0)
(8.78887e-35 -3.23624e-35 0)
(1.39876e-35 -1.78357e-36 0)
(7.0245e-37 -1.83642e-37 0)
(6.74663e-38 -9.35648e-39 0)
(3.38205e-39 -6.85912e-40 0)
(-1.61097e-45 -6.60485e-41 0)
(-3.38208e-39 -6.85916e-40 0)
(-6.7467e-38 -9.35657e-39 0)
(-7.02462e-37 -1.83644e-37 0)
(-1.39878e-35 -1.7836e-36 0)
(-8.78921e-35 -3.23631e-35 0)
(-2.0609e-33 -2.91458e-35 0)
(-1.987e-33 6.32918e-35 0)
(1.97224e-33 6.16832e-35 0)
(1.97224e-33 -6.16832e-35 0)
(-1.987e-33 -6.32918e-35 0)
(-2.0609e-33 2.91458e-35 0)
(-8.78921e-35 3.23631e-35 0)
(-1.39878e-35 1.7836e-36 0)
(-7.02474e-37 1.83642e-37 0)
(-6.77132e-38 9.32337e-39 0)
(-6.79873e-39 -1.8815e-42 0)
(-6.79455e-38 -9.35451e-39 0)
(-7.05622e-37 -1.84293e-37 0)
(-1.40519e-35 -1.79227e-36 0)
(-8.85268e-35 -3.25374e-35 0)
(-2.07418e-33 -3.07451e-35 0)
(-2.06083e-33 3.27224e-35 0)
(-8.63472e-42 6.50935e-35 0)
(2.06083e-33 3.27223e-35 0)
(2.07418e-33 -3.07456e-35 0)
(8.84623e-35 -3.25383e-35 0)
(1.37027e-35 -1.68428e-36 0)
(-8.27544e-38 8.37246e-38 0)
(-1.42066e-36 9.05559e-37 0)
(-9.71294e-36 1.64568e-35 0)
(-1.60528e-34 1.48151e-35 0)
(-1.52161e-34 -3.22741e-35 0)
(1.52161e-34 -3.22741e-35 0)
(1.60528e-34 1.48151e-35 0)
(9.71294e-36 1.64568e-35 0)
(1.42094e-36 9.05802e-37 0)
(8.17229e-38 9.13895e-38 0)
(7.61845e-39 4.61711e-39 0)
(4.10711e-40 3.34146e-40 0)
(-2.09184e-46 3.19368e-41 0)
(-4.10716e-40 3.34148e-40 0)
(-7.61854e-39 4.61716e-39 0)
(-8.17244e-38 9.13905e-38 0)
(-1.42097e-36 9.05818e-37 0)
(-9.71335e-36 1.64572e-35 0)
(-1.60535e-34 1.48197e-35 0)
(-1.52243e-34 -3.21824e-35 0)
(1.50733e-34 -3.13637e-35 0)
(1.50733e-34 3.13637e-35 0)
(-1.52243e-34 3.21824e-35 0)
(-1.60535e-34 -1.48197e-35 0)
(-9.71335e-36 -1.64572e-35 0)
(-1.42097e-36 -9.05818e-37 0)
(-8.17259e-38 -9.13895e-38 0)
(-7.64812e-39 -4.6011e-39 0)
(-8.25782e-40 9.02825e-43 0)
(-7.67597e-39 4.61617e-39 0)
(-8.21086e-38 9.17067e-38 0)
(-1.42817e-36 9.10101e-37 0)
(-9.78743e-36 1.65439e-35 0)
(-1.61874e-34 1.56338e-35 0)
(-1.60528e-34 -1.6636e-35 0)
(-1.2638e-42 -3.30971e-35 0)
(1.60528e-34 -1.6636e-35 0)
(1.61874e-34 1.5634e-35 0)
(9.77909e-36 1.65419e-35 0)
(1.3736e-36 7.44308e-37 0)
(-1.31965e-38 9.36764e-39 0)
(-1.92782e-37 1.03725e-37 0)
(-7.06666e-37 1.58049e-36 0)
(-8.48358e-36 1.39203e-36 0)
(-7.95865e-36 -3.08719e-36 0)
(7.95865e-36 -3.08719e-36 0)
(8.48358e-36 1.39203e-36 0)
(7.06663e-37 1.58049e-36 0)
(1.92782e-37 1.0375e-37 0)
(1.23279e-38 1.03099e-38 0)
(1.3511e-39 5.6324e-40 0)
(7.62235e-41 4.03882e-41 0)
(-4.44996e-47 4.04855e-42 0)
(-7.62244e-41 4.03885e-41 0)
(-1.35112e-39 5.63246e-40 0)
(-1.23282e-38 1.031e-38 0)
(-1.92787e-37 1.03752e-37 0)
(-7.0674e-37 1.58053e-36 0)
(-8.48494e-36 1.3926e-36 0)
(-7.97106e-36 -3.07684e-36 0)
(7.76451e-36 -2.98288e-36 0)
(7.76451e-36 2.98288e-36 0)
(-7.97106e-36 3.07684e-36 0)
(-8.48494e-36 -1.3926e-36 0)
(-7.0674e-37 -1.58053e-36 0)
(-1.92787e-37 -1.03752e-37 0)
(-1.23285e-38 -1.03099e-38 0)
(-1.35698e-39 -5.6121e-40 0)
(-1.53328e-40 1.13997e-43 0)
(-1.36248e-39 5.6312e-40 0)
(-1.23992e-38 1.03481e-38 0)
(-1.94062e-37 1.04275e-37 0)
(-7.17711e-37 1.59028e-36 0)
(-8.66531e-36 1.486e-36 0)
(-8.48358e-36 -1.60067e-36 0)
(-7.61435e-44 -3.18168e-36 0)
(8.48358e-36 -1.60066e-36 0)
(8.66531e-36 1.48603e-36 0)
(7.17574e-37 1.59006e-36 0)
(1.93936e-37 8.52741e-38 0)
(-1.18963e-39 1.68899e-39 0)
(-1.54991e-38 1.6437e-38 0)
(-3.82503e-38 2.40928e-37 0)
(-3.4132e-37 2.11465e-37 0)
(-3.17593e-37 -4.70812e-37 0)
(3.17593e-37 -4.70812e-37 0)
(3.4132e-37 2.11465e-37 0)
(3.82499e-38 2.40928e-37 0)
(1.54975e-38 1.64443e-38 0)
(1.09439e-39 1.86011e-39 0)
(1.26254e-40 1.05791e-40 0)
(7.50135e-42 8.07553e-42 0)
(-4.77322e-48 8.27334e-43 0)
(-7.50145e-42 8.07559e-42 0)
(-1.26255e-40 1.05792e-40 0)
(-1.09442e-39 1.86013e-39 0)
(-1.54981e-38 1.64447e-38 0)
(-3.82575e-38 2.40937e-37 0)
(-3.41447e-37 2.11572e-37 0)
(-3.18694e-37 -4.68944e-37 0)
(3.01968e-37 -4.54262e-37 0)
(3.01968e-37 4.54262e-37 0)
(-3.18694e-37 4.68944e-37 0)
(-3.41447e-37 -2.11572e-37 0)
(-3.82575e-38 -2.40937e-37 0)
(-1.54981e-38 -1.64447e-38 0)
(-1.09445e-39 -1.86011e-39 0)
(-1.26842e-40 -1.05376e-40 0)
(-1.50939e-41 2.39667e-44 0)
(-1.27393e-40 1.05766e-40 0)
(-1.1014e-39 1.86774e-39 0)
(-1.56168e-38 1.65424e-38 0)
(-3.9225e-38 2.4269e-37 0)
(-3.55842e-37 2.26148e-37 0)
(-3.4132e-37 -2.44566e-37 0)
(-2.54431e-45 -4.85593e-37 0)
(3.4132e-37 -2.44566e-37 0)
(3.55844e-37 2.26149e-37 0)
(3.92507e-38 2.4262e-37 0)
(1.58478e-38 1.32615e-38 0)
(-1.23727e-40 1.57837e-40 0)
(-1.49318e-39 1.48695e-39 0)
(-2.16562e-39 2.02384e-38 0)
(-9.22528e-39 1.75832e-38 0)
(-8.45487e-39 -3.94953e-38 0)
(8.45487e-39 -3.94953e-38 0)
(9.22528e-39 1.75832e-38 0)
(2.16556e-39 2.02384e-38 0)
(1.49276e-39 1.48773e-39 0)
(1.10498e-40 1.74665e-40 0)
(1.3665e-41 1.04437e-41 0)
(8.31123e-43 8.1111e-43 0)
(-5.63171e-49 8.5796e-44 0)
(-8.31133e-43 8.11117e-43 0)
(-1.36652e-41 1.04438e-41 0)
(-1.10501e-40 1.74668e-40 0)
(-1.49283e-39 1.48777e-39 0)
(-2.1664e-39 2.02392e-38 0)
(-9.23901e-39 1.75937e-38 0)
(-8.56621e-39 -3.93199e-38 0)
(6.94838e-39 -3.79971e-38 0)
(6.94838e-39 3.79971e-38 0)
(-8.56621e-39 3.93199e-38 0)
(-9.23901e-39 -1.75937e-38 0)
(-2.1664e-39 -2.02392e-38 0)
(-1.49283e-39 -1.48777e-39 0)
(-1.10505e-40 -1.74665e-40 0)
(-1.37321e-41 -1.04006e-41 0)
(-1.67276e-42 2.50516e-45 0)
(-1.37947e-41 1.0441e-41 0)
(-1.11273e-40 1.7543e-40 0)
(-1.50565e-39 1.4974e-39 0)
(-2.26317e-39 2.04034e-38 0)
(-1.06204e-38 1.8906e-38 0)
(-9.22528e-39 -2.05797e-38 0)
(7.27822e-46 -4.08278e-38 0)
(9.2253e-39 -2.05797e-38 0)
(1.06209e-38 1.89059e-38 0)
(2.27124e-39 2.03954e-38 0)
(1.5618e-39 1.18973e-39 0)
(-9.95377e-42 1.71528e-41 0)
(-1.12779e-40 1.52696e-40 0)
(-1.20101e-40 2.03366e-39 0)
(-7.71532e-41 1.76284e-39 0)
(-6.20646e-41 -3.96956e-39 0)
(6.20646e-41 -3.96956e-39 0)
(7.7153e-41 1.76284e-39 0)
(1.20096e-40 2.03366e-39 0)
(1.12733e-40 1.52798e-40 0)
(8.77874e-42 1.89984e-41 0)
(1.11841e-42 1.1609e-42 0)
(7.01426e-44 9.26074e-44 0)
(-5.01773e-50 9.92071e-45 0)
(-7.01435e-44 9.26082e-44 0)
(-1.11843e-42 1.16092e-42 0)
(-8.77905e-42 1.89987e-41 0)
(-1.12739e-40 1.52803e-40 0)
(-1.20167e-40 2.03376e-39 0)
(-7.82772e-41 1.764e-39 0)
(-7.09141e-41 -3.95047e-39 0)
(-5.17923e-41 -3.81559e-39 0)
(-5.17923e-41 3.81559e-39 0)
(-7.09141e-41 3.95047e-39 0)
(-7.82772e-41 -1.764e-39 0)
(-1.20167e-40 -2.03376e-39 0)
(-1.12739e-40 -1.52803e-40 0)
(-8.77936e-42 -1.89984e-41 0)
(-1.12414e-42 -1.15593e-42 0)
(-1.41201e-43 2.93038e-46 0)
(-1.12948e-42 1.16059e-42 0)
(-8.84412e-42 1.90857e-41 0)
(-1.13786e-40 1.53872e-40 0)
(-1.27821e-40 2.05159e-39 0)
(-1.8216e-40 1.89771e-39 0)
(-7.7153e-41 -2.07077e-39 0)
(1.09125e-46 -4.10551e-39 0)
(7.71555e-41 -2.07077e-39 0)
(1.8221e-40 1.89768e-39 0)
(1.28678e-40 2.05053e-39 0)
(1.19418e-40 1.20654e-40 0)
(-8.03066e-43 1.52663e-42 0)
(-9.20699e-42 1.21853e-41 0)
(-8.10284e-42 1.56149e-40 0)
(1.64461e-41 1.34547e-40 0)
(1.59972e-41 -3.04588e-40 0)
(-1.59972e-41 -3.04588e-40 0)
(-1.6446e-41 1.34547e-40 0)
(8.10367e-42 1.56152e-40 0)
(9.19288e-42 1.22241e-41 0)
(7.30479e-43 1.55806e-42 0)
(9.5745e-44 9.81189e-44 0)
(6.08727e-45 7.92174e-45 0)
(-4.48671e-51 8.65622e-46 0)
(-6.08736e-45 7.92181e-45 0)
(-9.57468e-44 9.81202e-44 0)
(-7.30507e-43 1.55809e-42 0)
(-9.19338e-42 1.22245e-41 0)
(-8.10981e-42 1.5616e-40 0)
(1.63498e-41 1.34646e-40 0)
(1.52605e-41 -3.03022e-40 0)
(-2.52863e-41 -2.92265e-40 0)
(-2.52863e-41 2.92265e-40 0)
(1.52605e-41 3.03022e-40 0)
(1.63498e-41 -1.34646e-40 0)
(-8.10981e-42 -1.5616e-40 0)
(-9.19338e-42 -1.22245e-41 0)
(-7.30535e-43 -1.55806e-42 0)
(-9.62486e-44 -9.76848e-44 0)
(-1.22557e-44 2.57044e-47 0)
(-9.67177e-44 9.80917e-44 0)
(-7.36149e-43 1.56552e-42 0)
(-9.28299e-42 1.23147e-41 0)
(-8.74404e-42 1.57619e-40 0)
(7.8935e-42 1.45304e-40 0)
(1.6446e-41 -1.59193e-40 0)
(1.42136e-47 -3.15435e-40 0)
(-1.64457e-41 -1.59193e-40 0)
(-7.88823e-42 1.453e-40 0)
(8.83367e-42 1.57522e-40 0)
(9.85071e-42 9.59622e-42 0)
(1.00059e-42 4.16385e-42 0)
(-6.6701e-43 4.80388e-43 0)
(-5.02365e-43 1.28076e-41 0)
(1.66395e-42 1.1046e-41 0)
(1.58979e-42 -2.50609e-41 0)
(-1.58965e-42 -2.50607e-41 0)
(-1.66226e-42 1.10488e-41 0)
(5.26057e-43 1.28478e-41 0)
(6.44738e-43 1.02125e-42 0)
(5.26613e-44 1.33591e-43 0)
(6.99691e-45 8.5263e-45 0)
(4.53321e-46 6.96665e-46 0)
(-3.43961e-52 7.67523e-47 0)
(-4.53327e-46 6.96671e-46 0)
(-6.99704e-45 8.52642e-45 0)
(-5.26634e-44 1.33594e-43 0)
(-6.44776e-43 1.02129e-42 0)
(-5.26515e-43 1.28485e-41 0)
(1.65522e-42 1.10574e-41 0)
(1.53654e-42 -2.49264e-41 0)
(-2.24143e-42 -2.40309e-41 0)
(-2.24143e-42 2.40309e-41 0)
(1.53654e-42 2.49264e-41 0)
(1.65522e-42 -1.10574e-41 0)
(-5.26515e-43 -1.28485e-41 0)
(-6.44776e-43 -1.02129e-42 0)
(-5.26655e-44 -1.33591e-43 0)
(-7.03464e-45 -8.48781e-45 0)
(-9.12796e-46 2.28927e-48 0)
(-7.06976e-45 8.52389e-45 0)
(-5.30834e-44 1.34247e-43 0)
(-6.51315e-43 1.02912e-42 0)
(-5.72141e-43 1.29735e-41 0)
(1.0636e-42 1.19444e-41 0)
(1.66226e-42 -1.31085e-41 0)
(1.30299e-48 -2.59641e-41 0)
(-1.66223e-42 -1.31085e-41 0)
(-1.06317e-42 1.19439e-41 0)
(5.79371e-43 1.29643e-41 0)
(6.96338e-43 7.96587e-43 0)
(4.63784e-41 8.36408e-42 0)
(-7.19018e-45 -6.71992e-42 0)
(4.38923e-43 3.93791e-43 0)
(1.62334e-43 7.45814e-43 0)
(1.27567e-43 -1.76442e-42 0)
(-1.25402e-43 -1.76306e-42 0)
(-1.31793e-43 7.74526e-43 0)
(3.64543e-44 9.04256e-43 0)
(4.60714e-44 7.37542e-44 0)
(3.80966e-45 9.77101e-45 0)
(5.12129e-46 6.35473e-46 0)
(3.34826e-47 5.22334e-47 0)
(-2.56815e-53 5.82642e-48 0)
(-3.34831e-47 5.22339e-47 0)
(-5.12138e-46 6.35482e-46 0)
(-3.80982e-45 9.77119e-45 0)
(-4.60742e-44 7.37572e-44 0)
(-3.64878e-44 9.04308e-43 0)
(1.31283e-43 7.75167e-43 0)
(1.21666e-43 -1.75318e-42 0)
(-1.72096e-43 -1.68861e-42 0)
(-1.72096e-43 1.68861e-42 0)
(1.21666e-43 1.75318e-42 0)
(1.31283e-43 -7.75167e-43 0)
(-3.64878e-44 -9.04308e-43 0)
(-4.60742e-44 -7.37571e-44 0)
(-3.80998e-45 -9.77101e-45 0)
(-5.14928e-46 -6.32551e-46 0)
(-6.74243e-47 1.74123e-49 0)
(-5.17533e-46 6.35289e-46 0)
(-3.84083e-45 9.82014e-45 0)
(-4.65526e-44 7.43404e-44 0)
(-3.97826e-44 9.13441e-43 0)
(8.90552e-44 8.39098e-43 0)
(1.31798e-43 -9.23314e-43 0)
(1.13922e-49 -1.82816e-42 0)
(-1.31796e-43 -9.23315e-43 0)
(-8.902e-44 8.39059e-43 0)
(4.03582e-44 9.12722e-43 0)
(5.01072e-44 5.73663e-44 0)
(1.68746e-39 1.12193e-39 0)
(1.0578e-40 -1.14645e-40 0)
(7.49499e-42 -8.60435e-42 0)
(4.20422e-43 -3.44772e-43 0)
(2.96654e-44 -1.44486e-43 0)
(-7.26031e-45 -1.26538e-43 0)
(-8.68047e-45 5.51404e-44 0)
(2.31489e-45 6.45235e-44 0)
(2.96331e-45 5.32459e-45 0)
(2.49482e-46 7.12955e-46 0)
(3.37203e-47 4.67856e-47 0)
(2.23231e-48 3.86109e-48 0)
(-1.5927e-54 4.32971e-49 0)
(-2.23234e-48 3.86113e-48 0)
(-3.37208e-47 4.67863e-47 0)
(-2.4949e-46 7.1297e-46 0)
(-2.96342e-45 5.32485e-45 0)
(-2.31515e-45 6.45285e-44 0)
(8.69264e-45 5.52187e-44 0)
(8.0423e-45 -1.25068e-43 0)
(-1.12912e-44 -1.20413e-43 0)
(-1.12912e-44 1.20413e-43 0)
(8.0423e-45 1.25068e-43 0)
(8.69264e-45 -5.52187e-44 0)
(-2.31515e-45 -6.45285e-44 0)
(-2.96342e-45 -5.32485e-45 0)
(-2.495e-46 -7.12956e-46 0)
(-3.39072e-47 -4.65685e-47 0)
(-4.49553e-48 1.29419e-50 0)
(-3.40811e-47 4.6772e-47 0)
(-2.51557e-46 7.16587e-46 0)
(-2.99489e-45 5.36777e-45 0)
(-2.53072e-45 6.51945e-44 0)
(5.98114e-45 5.98265e-44 0)
(8.72655e-45 -6.5915e-44 0)
(8.50263e-51 -1.30483e-43 0)
(-8.72638e-45 -6.59151e-44 0)
(-5.97865e-45 5.98232e-44 0)
(2.57059e-45 6.5139e-44 0)
(3.24052e-45 4.13129e-45 0)
(6.62532e-35 -1.87865e-31 0)
(3.20824e-32 -1.17021e-32 0)
(2.9581e-33 -5.16989e-30 0)
(-2.53208e-33 -2.27707e-31 0)
(8.12073e-32 6.15333e-31 0)
(1.25619e-32 2.75613e-32 0)
(2.9574e-33 5.81079e-30 0)
(5.02195e-33 2.56868e-31 0)
(6.78542e-35 2.15708e-31 0)
(3.58938e-32 1.34976e-32 0)
(1.44076e-36 1.00887e-31 0)
(-1.49121e-33 6.37122e-33 0)
(6.03607e-36 4.40431e-31 0)
(-6.0208e-32 2.75425e-32 0)
(1.14937e-35 9.51084e-30 0)
(-1.15613e-31 4.33052e-31 0)
(3.65134e-37 1.88365e-29 0)
(-3.68264e-33 8.43702e-31 0)
(-1.14755e-35 1.01007e-29 0)
(1.1544e-31 4.59022e-31 0)
(6.40589e-32 2.87432e-32 0)
(3.46568e-33 4.23271e-33 0)
(3.28215e-34 2.38259e-34 0)
(1.59414e-35 2.19558e-35 0)
(1.09169e-36 4.4775e-36 0)
(-3.46905e-38 4.78152e-35 0)
(-1.24527e-36 1.00891e-33 0)
(-2.69329e-35 1.06727e-32 0)
(-2.86701e-34 2.24538e-31 0)
(-5.61631e-33 1.40554e-30 0)
(-5.35538e-33 3.41823e-29 0)
(5.35538e-33 3.41823e-29 0)
(5.6163e-33 1.40554e-30 0)
(2.82333e-34 2.24529e-31 0)
(-2.20504e-34 1.05904e-32 0)
(-1.02756e-32 -6.60587e-34 0)
(-2.82229e-31 4.77373e-35 0)
(-1.02768e-32 1.67284e-33 0)
(-2.47437e-34 8.2387e-35 0)
(-4.3677e-36 8.60457e-36 0)
(-1.43981e-38 4.01988e-37 0)
(5.17573e-38 4.75187e-38 0)
(3.75547e-37 2.82944e-37 0)
(1.97825e-33 -5.53586e-34 0)
(2.34621e-34 -2.90143e-35 0)
(1.39263e-35 -2.09526e-36 0)
(1.13792e-36 -1.14102e-37 0)
(-1.50141e-34 -7.76092e-33 0)
(-5.67177e-36 -2.13168e-34 0)
(-3.65171e-39 -5.81852e-36 0)
(6.24974e-38 -1.72344e-37 0)
(2.26169e-35 9.07307e-34 0)
(2.35482e-34 2.31954e-35 0)
(1.64224e-35 3.48148e-37 0)
(2.38987e-36 -2.39626e-39 0)
(3.39868e-34 8.74799e-33 0)
(5.1814e-35 2.3915e-34 0)
(3.49968e-36 6.28563e-36 0)
(3.48022e-37 1.74517e-37 0)
(2.31308e-33 5.75492e-34 0)
(2.71773e-34 1.93451e-35 0)
(1.64137e-35 7.38246e-37 0)
(1.33767e-36 3.03346e-38 0)
(-1.1276e-34 6.66966e-34 0)
(-1.40315e-35 3.92962e-35 0)
(-9.1844e-37 3.1159e-36 0)
(-7.64013e-38 1.75361e-37 0)
(-3.94219e-33 1.57629e-33 0)
(-4.61137e-34 6.96494e-35 0)
(-2.80077e-35 4.19522e-36 0)
(-2.26832e-36 2.14605e-37 0)
(-7.48056e-33 1.46589e-32 0)
(-8.73629e-34 3.91318e-34 0)
(-5.27365e-35 7.57383e-36 0)
(-4.26709e-36 7.94385e-38 0)
(-2.37257e-34 2.77822e-32 0)
(-2.76943e-35 7.1148e-34 0)
(-1.66804e-36 1.08364e-35 0)
(-1.34925e-37 -6.00882e-38 0)
(7.46755e-33 1.54876e-32 0)
(8.72102e-34 4.11471e-34 0)
(5.26382e-35 7.77124e-36 0)
(4.25911e-36 7.00701e-38 0)
(4.19221e-33 1.61284e-33 0)
(4.90578e-34 7.01644e-35 0)
(2.97928e-35 4.14528e-36 0)
(2.41345e-36 2.10176e-37 0)
(2.62023e-34 4.42893e-34 0)
(3.18715e-35 2.61377e-35 0)
(2.07696e-36 2.0679e-36 0)
(1.71626e-37 1.16366e-37 0)
(2.50389e-35 2.76144e-35 0)
(3.41614e-36 1.78342e-36 0)
(2.29583e-37 1.46254e-37 0)
(1.99395e-38 8.61958e-39 0)
(1.29261e-36 2.92697e-36 0)
(1.83093e-37 1.97695e-37 0)
(1.2812e-38 1.7131e-38 0)
(1.13341e-39 1.03432e-39 0)
(-8.07248e-38 4.4044e-37 0)
(-2.19678e-39 5.21677e-38 0)
(-1.35475e-39 3.93388e-39 0)
(-8.46642e-41 3.25369e-40 0)
(-3.77657e-36 4.0355e-36 0)
(-3.29815e-37 5.52686e-37 0)
(-4.81135e-38 3.91998e-38 0)
(-3.45534e-39 3.42297e-39 0)
(-5.3781e-35 7.91973e-35 0)
(-4.67724e-36 1.04644e-35 0)
(-6.46005e-37 7.06661e-37 0)
(-4.57702e-38 6.06826e-38 0)
(-1.13001e-33 8.32042e-34 0)
(-9.13656e-35 9.45206e-35 0)
(-1.2219e-35 6.10974e-36 0)
(-8.25874e-37 4.93202e-37 0)
(-1.13975e-32 1.53269e-32 0)
(-9.11106e-34 1.58627e-33 0)
(-1.08117e-34 9.35838e-35 0)
(-7.07721e-36 7.31353e-36 0)
(-2.19729e-31 9.48942e-32 0)
(-1.50862e-32 4.72497e-33 0)
(-1.73789e-33 1.81946e-34 0)
(-1.05957e-34 8.83652e-36 0)
(-2.09411e-31 1.65677e-30 0)
(-1.42621e-32 5.62821e-32 0)
(-1.64139e-33 1.4457e-33 0)
(-9.96631e-35 2.25995e-35 0)
(2.09411e-31 1.65677e-30 0)
(1.42621e-32 5.62821e-32 0)
(1.64139e-33 1.4457e-33 0)
(9.96629e-35 2.25999e-35 0)
(2.19729e-31 9.48946e-32 0)
(1.50862e-32 4.72542e-33 0)
(1.73785e-33 1.81987e-34 0)
(1.05953e-34 8.8419e-36 0)
(1.13932e-32 1.53359e-32 0)
(9.10199e-34 1.59601e-33 0)
(1.07566e-34 9.44074e-35 0)
(7.02828e-36 7.41745e-36 0)
(8.84427e-34 9.18989e-34 0)
(6.06119e-35 1.87683e-34 0)
(-8.22019e-38 1.38093e-35 0)
(-1.6362e-37 1.35484e-36 0)
(-1.01571e-32 1.8445e-33 0)
(-7.9553e-34 1.88327e-33 0)
(-1.36968e-34 1.33779e-34 0)
(-9.81553e-36 1.46618e-35 0)
(-2.80904e-31 4.0241e-36 0)
(-1.5825e-32 5.5189e-37 0)
(-2.67767e-33 3.92138e-38 0)
(-1.68956e-34 4.02477e-39 0)
(-1.02107e-32 -1.76502e-33 0)
(-8.00191e-34 -1.87277e-33 0)
(-1.37611e-34 -1.33068e-34 0)
(-9.85369e-36 -1.45905e-35 0)
(-2.4557e-34 -8.6934e-35 0)
(-3.07511e-35 -9.31579e-35 0)
(-1.2289e-35 -7.66889e-36 0)
(-8.60922e-37 -6.40787e-37 0)
(-4.32789e-36 -9.08373e-36 0)
(-8.71233e-37 -9.71326e-36 0)
(-2.93293e-37 -4.26728e-37 0)
(2.8484e-36 2.91085e-36 0)
(1.63748e-38 -3.77734e-37 0)
(4.26283e-37 6.44348e-38 0)
(3.52747e-36 7.61718e-36 0)
(4.13151e-35 5.97752e-35 0)
(6.1186e-37 3.01098e-37 0)
(9.0329e-36 4.08702e-36 0)
(7.18005e-35 6.31084e-35 0)
(9.17516e-34 5.5306e-34 0)
(4.87566e-36 5.19353e-36 0)
(7.56009e-35 6.52032e-35 0)
(7.04617e-34 1.07069e-33 0)
(1.01263e-32 9.54559e-33 0)
(5.93519e-38 -5.66049e-39 0)
(3.57288e-39 -1.15485e-40 0)
(1.64843e-40 -3.93702e-42 0)
(8.52717e-42 -1.53585e-43 0)
(3.66943e-43 -1.35835e-44 0)
(1.64131e-44 -6.22877e-45 0)
(2.58295e-46 2.566e-45 0)
(1.36445e-46 3.0256e-45 0)
(1.40752e-46 2.53891e-46 0)
(1.18733e-47 3.45289e-47 0)
(1.60446e-48 2.29747e-48 0)
(1.06564e-49 1.91317e-49 0)
(1.53141e-54 2.16692e-50 0)
(-1.06517e-49 1.9132e-49 0)
(-1.6031e-48 2.29754e-48 0)
(-1.1834e-47 3.45306e-47 0)
(-1.39715e-46 2.53927e-46 0)
(-1.08627e-46 3.0264e-45 0)
(4.13919e-46 2.58339e-45 0)
(3.82732e-46 -5.86351e-45 0)
(-5.35991e-46 -5.64201e-45 0)
(-5.35991e-46 5.64201e-45 0)
(3.82732e-46 5.86351e-45 0)
(4.13919e-46 -2.58339e-45 0)
(-1.08627e-46 -3.0264e-45 0)
(-1.39715e-46 -2.53927e-46 0)
(-1.18345e-47 -3.45299e-47 0)
(-1.61198e-48 -2.28664e-48 0)
(-2.14505e-49 6.50656e-52 0)
(-1.62027e-48 2.29682e-48 0)
(-1.19327e-47 3.47097e-47 0)
(-1.41211e-46 2.56033e-46 0)
(-1.18848e-46 3.05862e-45 0)
(2.86154e-46 2.80258e-45 0)
(4.15531e-46 -3.09353e-45 0)
(4.4439e-52 -6.12186e-45 0)
(-4.15522e-46 -3.09353e-45 0)
(-2.86027e-46 2.8024e-45 0)
(1.20888e-46 3.05581e-45 0)
(1.53982e-46 1.96092e-46 0)
(5.19728e-39 -9.15383e-39 0)
(5.13927e-40 -4.37899e-40 0)
(3.03591e-41 -2.83859e-41 0)
(2.05415e-42 -1.3802e-42 0)
(1.04679e-43 -7.58784e-44 0)
(5.743e-45 -3.62888e-45 0)
(2.48102e-46 -4.87745e-47 0)
(1.64855e-47 1.2418e-46 0)
(5.63901e-48 1.07628e-47 0)
(4.60772e-49 1.48572e-48 0)
(6.0656e-50 9.94436e-50 0)
(4.04227e-51 8.25432e-51 0)
(1.1788e-54 9.35957e-52 0)
(-4.00928e-51 8.26887e-51 0)
(-5.98012e-50 9.98535e-50 0)
(-4.38582e-49 1.49636e-48 0)
(-5.11597e-48 1.10419e-47 0)
(-3.96185e-48 1.3077e-46 0)
(1.51891e-47 1.11495e-46 0)
(1.40312e-47 -2.53298e-46 0)
(-1.96496e-47 -2.4366e-46 0)
(-1.96496e-47 2.4366e-46 0)
(1.40312e-47 2.53298e-46 0)
(1.51891e-47 -1.11495e-46 0)
(-3.96185e-48 -1.3077e-46 0)
(-5.11598e-48 -1.10419e-47 0)
(-4.38601e-49 -1.49633e-48 0)
(-6.01364e-50 -9.93824e-50 0)
(-8.07451e-51 2.79378e-53 0)
(-6.0449e-50 9.98225e-50 0)
(-4.42295e-49 1.5041e-48 0)
(-5.17173e-48 1.11335e-47 0)
(-4.34028e-48 1.32166e-46 0)
(1.0516e-47 1.21032e-46 0)
(1.52492e-47 -1.33678e-46 0)
(1.80723e-53 -2.64532e-46 0)
(-1.52488e-47 -1.33678e-46 0)
(-1.05111e-47 1.21023e-46 0)
(4.41943e-48 1.32039e-46 0)
(5.6647e-48 8.54265e-48 0)
(1.4299e-37 -6.81348e-40 0)
(1.16268e-38 -3.64464e-41 0)
(6.04176e-40 -1.93858e-42 0)
(3.80891e-41 -8.32238e-44 0)
(1.81334e-42 -3.78787e-45 0)
(9.62144e-44 -1.59623e-46 0)
(4.21763e-45 -2.00268e-48 0)
(1.96379e-46 4.6522e-48 0)
(8.16037e-48 4.08686e-49 0)
(3.49678e-49 5.64677e-50 0)
(1.48643e-50 3.81092e-51 0)
(6.33663e-52 3.1644e-52 0)
(1.68508e-53 3.60575e-53 0)
(-1.54736e-52 3.16781e-52 0)
(-2.31261e-51 3.82134e-51 0)
(-1.7027e-50 5.6767e-50 0)
(-1.97753e-49 4.17278e-49 0)
(-1.52896e-49 4.88086e-48 0)
(5.87333e-49 4.15281e-48 0)
(5.42331e-49 -9.45062e-48 0)
(-7.5958e-49 -9.0866e-48 0)
(-7.5958e-49 9.0866e-48 0)
(5.42331e-49 9.45062e-48 0)
(5.87333e-49 -4.15281e-48 0)
(-1.52896e-49 -4.88086e-48 0)
(-1.97753e-49 -4.17278e-49 0)
(-1.70278e-50 -5.67659e-50 0)
(-2.32555e-51 -3.8032e-51 0)
(-3.12809e-52 1.07501e-54 0)
(-2.3376e-51 3.82015e-51 0)
(-1.7171e-50 5.70634e-50 0)
(-1.99909e-49 4.20782e-49 0)
(-1.67597e-49 4.93379e-48 0)
(4.06776e-49 4.51299e-48 0)
(5.89658e-49 -4.99117e-48 0)
(7.38444e-55 -9.87525e-48 0)
(-5.89644e-49 -4.99119e-48 0)
(-4.06576e-49 4.51266e-48 0)
(1.70747e-49 4.92881e-48 0)
(2.19832e-49 3.22587e-49 0)
(2.00162e-38 8.71631e-39 0)
(1.3959e-39 4.14095e-40 0)
(7.06642e-41 2.7155e-41 0)
(4.11308e-42 1.32837e-42 0)
(1.92339e-43 7.32958e-44 0)
(9.73027e-45 3.282e-45 0)
(4.21124e-46 1.56602e-46 0)
(1.89995e-47 6.63325e-48 0)
(7.7033e-49 2.89847e-49 0)
(3.18249e-50 1.26407e-50 0)
(1.25106e-51 5.50921e-52 0)
(4.9411e-53 2.65397e-53 0)
(1.53776e-54 1.9e-54 0)
(-5.45421e-54 1.22641e-53 0)
(-8.15173e-53 1.48622e-52 0)
(-6.00742e-52 2.20419e-51 0)
(-6.91107e-51 1.62814e-50 0)
(-5.3279e-51 1.89588e-49 0)
(2.05256e-50 1.6116e-49 0)
(1.89373e-50 -3.67017e-49 0)
(-2.65362e-50 -3.52804e-49 0)
(-2.65362e-50 3.52804e-49 0)
(1.89373e-50 3.67017e-49 0)
(2.05256e-50 -1.6116e-49 0)
(-5.3279e-51 -1.89588e-49 0)
(-6.91107e-51 -1.62814e-50 0)
(-6.00768e-52 -2.20415e-51 0)
(-8.19759e-53 -1.4792e-52 0)
(-1.10917e-53 4.12664e-56 0)
(-8.24021e-53 1.48575e-52 0)
(-6.05847e-52 2.21565e-51 0)
(-6.98703e-51 1.64178e-50 0)
(-5.84665e-51 1.91643e-49 0)
(1.42213e-50 1.75225e-49 0)
(2.06076e-50 -1.93871e-49 0)
(2.74375e-56 -3.83585e-49 0)
(-2.0607e-50 -1.93872e-49 0)
(-1.4214e-50 1.75211e-49 0)
(5.9598e-51 1.91445e-49 0)
(7.7065e-51 1.26127e-50 0)
(6.9177e-38 1.69575e-39 0)
(4.14214e-39 8.00945e-41 0)
(1.90449e-40 4.50521e-42 0)
(9.81746e-42 2.07975e-43 0)
(4.20964e-43 1.03799e-44 0)
(1.92493e-44 4.45561e-46 0)
(7.70089e-46 1.99075e-47 0)
(3.18414e-47 8.01108e-49 0)
(1.19106e-48 3.28244e-50 0)
(4.51324e-50 1.2788e-51 0)
(1.58387e-51 5.00876e-53 0)
(5.55894e-53 1.99559e-54 0)
(1.82386e-54 1.03492e-55 0)
(-1.35667e-55 4.35317e-55 0)
(-2.8845e-54 5.27454e-54 0)
(-2.13959e-53 7.77686e-53 0)
(-2.45283e-52 5.75127e-52 0)
(-1.88849e-52 6.63369e-51 0)
(7.28386e-52 5.62927e-51 0)
(6.71771e-52 -1.28376e-50 0)
(-9.41533e-52 -1.23354e-50 0)
(-9.41533e-52 1.23354e-50 0)
(6.71771e-52 1.28376e-50 0)
(7.28386e-52 -5.62927e-51 0)
(-1.88849e-52 -6.63369e-51 0)
(-2.45283e-52 -5.75127e-52 0)
(-2.13969e-53 -7.77671e-53 0)
(-2.90243e-54 -5.2496e-54 0)
(-3.93062e-55 1.45989e-57 0)
(-2.91743e-54 5.27287e-54 0)
(-2.15769e-53 7.81743e-53 0)
(-2.47973e-52 5.79968e-52 0)
(-2.07342e-52 6.70616e-51 0)
(5.04711e-52 6.12617e-51 0)
(7.31289e-52 -6.78477e-51 0)
(1.00618e-57 -1.34229e-50 0)
(-7.3127e-52 -6.7848e-51 0)
(-5.04448e-52 6.12567e-51 0)
(2.11417e-52 6.69898e-51 0)
(2.74273e-52 4.45931e-52 0)
(-4.13045e-39 1.06905e-38 0)
(-2.47786e-40 4.87738e-40 0)
(-1.16565e-41 2.49738e-41 0)
(-5.97599e-43 1.06813e-42 0)
(-2.58919e-44 4.86086e-44 0)
(-1.17275e-45 1.93923e-45 0)
(-4.70242e-47 7.98117e-47 0)
(-1.92104e-48 2.97545e-48 0)
(-7.1596e-50 1.12213e-49 0)
(-2.67459e-51 3.92072e-51 0)
(-9.29683e-53 1.36839e-52 0)
(-3.20505e-54 4.49739e-54 0)
(-1.04626e-55 1.47349e-55 0)
(-9.81082e-57 1.97645e-56 0)
(-9.51391e-56 1.87097e-55 0)
(-7.07433e-55 2.75422e-54 0)
(-8.05003e-54 2.04897e-53 0)
(-6.18291e-54 2.35508e-52 0)
(2.39014e-53 1.99693e-52 0)
(2.20283e-53 -4.55675e-52 0)
(-3.08873e-53 -4.37768e-52 0)
(-3.08873e-53 4.37768e-52 0)
(2.20283e-53 4.55675e-52 0)
(2.39014e-53 -1.99693e-52 0)
(-6.18291e-54 -2.35508e-52 0)
(-8.05003e-54 -2.04897e-53 0)
(-7.0746e-55 -2.75416e-54 0)
(-9.55655e-56 -1.86085e-55 0)
(-1.29921e-56 5.10052e-59 0)
(-9.60591e-56 1.86904e-55 0)
(-7.13415e-55 2.7685e-54 0)
(-8.13856e-54 2.06613e-53 0)
(-6.79474e-54 2.38075e-52 0)
(1.65658e-53 2.17412e-52 0)
(2.3997e-53 -2.40858e-52 0)
(3.42841e-59 -4.76525e-52 0)
(-2.39963e-53 -2.40859e-52 0)
(-1.6557e-53 2.17394e-52 0)
(6.93062e-54 2.37816e-52 0)
(9.02442e-54 1.59233e-53 0)
(-1.17408e-37 1.25042e-38 0)
(-6.98152e-39 5.62564e-40 0)
(-3.20501e-40 2.86238e-41 0)
(-1.6404e-41 1.21921e-42 0)
(-7.01177e-43 5.53014e-44 0)
(-3.1832e-44 2.199e-45 0)
(-1.26806e-45 9.02249e-47 0)
(-5.20527e-47 3.35285e-48 0)
(-1.93686e-48 1.26051e-49 0)
(-7.28427e-50 4.38847e-51 0)
(-2.53847e-51 1.52605e-52 0)
(-8.82965e-53 4.99046e-54 0)
(-2.88943e-54 1.61678e-55 0)
(-9.38186e-56 5.47828e-57 0)
(-5.9886e-57 6.3312e-57 0)
(-2.33622e-56 9.06994e-56 0)
(-2.64086e-55 6.77543e-55 0)
(-2.02596e-55 7.73039e-54 0)
(7.83964e-55 6.54531e-54 0)
(7.2228e-55 -1.49527e-53 0)
(-1.01296e-54 -1.43602e-53 0)
(-1.01296e-54 1.43602e-53 0)
(7.2228e-55 1.49527e-53 0)
(7.83964e-55 -6.54531e-54 0)
(-2.02596e-55 -7.73039e-54 0)
(-2.64084e-55 -6.77543e-55 0)
(-2.32757e-56 -9.06932e-56 0)
(-3.12215e-57 -6.15146e-57 0)
(-4.24577e-58 1.6714e-60 0)
(-3.13817e-57 6.17843e-57 0)
(-2.34704e-56 9.1165e-56 0)
(-2.66976e-55 6.83221e-55 0)
(-2.22747e-55 7.81487e-54 0)
(5.43384e-55 7.13162e-54 0)
(7.87086e-55 -7.90654e-54 0)
(1.14578e-60 -1.56422e-53 0)
(-7.87065e-55 -7.90658e-54 0)
(-5.4309e-55 7.13101e-54 0)
(2.27239e-55 7.80618e-54 0)
(2.96705e-55 5.27503e-55 0)
(-2.20026e-37 -3.65187e-39 0)
(-1.30754e-38 -2.55165e-40 0)
(-5.98655e-40 -1.43383e-41 0)
(-3.06249e-41 -6.24504e-43 0)
(-1.30649e-42 -2.84783e-44 0)
(-5.92852e-44 -1.13556e-45 0)
(-2.35819e-45 -4.66191e-47 0)
(-9.67615e-47 -1.73477e-48 0)
(-3.59629e-48 -6.52386e-50 0)
(-1.352e-49 -2.27349e-51 0)
(-4.70716e-51 -7.90761e-53 0)
(-1.63672e-52 -2.58769e-54 0)
(-5.35197e-54 -8.38283e-56 0)
(-1.73333e-55 -2.56612e-57 0)
(-5.43179e-57 1.23645e-58 0)
(-8.8396e-58 2.96099e-57 0)
(-8.15073e-57 2.22918e-56 0)
(-6.23669e-57 2.53606e-55 0)
(2.4178e-56 2.14576e-55 0)
(2.22625e-56 -4.90457e-55 0)
(-3.1233e-56 -4.70943e-55 0)
(-3.1233e-56 4.70943e-55 0)
(2.22625e-56 4.90457e-55 0)
(2.4178e-56 -2.14576e-55 0)
(-6.23655e-57 -2.53606e-55 0)
(-8.14603e-57 -2.22919e-56 0)
(-7.22174e-58 -2.96321e-57 0)
(-9.62742e-59 -2.01047e-58 0)
(-1.31233e-59 5.37471e-62 0)
(-9.67663e-59 2.01921e-58 0)
(-7.28196e-58 2.97852e-57 0)
(-8.2352e-57 2.24775e-56 0)
(-6.86239e-57 2.56366e-55 0)
(1.67612e-56 2.33888e-55 0)
(2.42743e-56 -2.59361e-55 0)
(3.61221e-62 -5.13138e-55 0)
(-2.42736e-56 -2.59362e-55 0)
(-1.6752e-56 2.33867e-55 0)
(7.00219e-57 2.56078e-55 0)
(9.17212e-57 1.73997e-56 0)
(-6.94752e-39 -1.99941e-38 0)
(-4.12774e-40 -1.07898e-39 0)
(-1.88802e-41 -5.75774e-41 0)
(-9.65654e-43 -2.47751e-42 0)
(-4.11654e-44 -1.12647e-43 0)
(-1.86767e-45 -4.48219e-45 0)
(-7.42482e-47 -1.83908e-46 0)
(-3.04607e-48 -6.83466e-48 0)
(-1.13161e-49 -2.56918e-49 0)
(-4.25355e-51 -8.94423e-51 0)
(-1.4804e-52 -3.10973e-52 0)
(-5.14671e-54 -1.01679e-53 0)
(-1.68244e-55 -3.29271e-55 0)
(-5.4481e-57 -1.01358e-56 0)
(-1.70586e-58 -3.01126e-58 0)
(-2.72e-59 8.24518e-59 0)
(-2.49008e-58 6.91412e-58 0)
(-1.90324e-58 7.82323e-57 0)
(7.38505e-58 6.61115e-57 0)
(6.7978e-58 -1.51255e-56 0)
(-9.53864e-58 -1.45195e-56 0)
(-9.53864e-58 1.45195e-56 0)
(6.7978e-58 1.51255e-56 0)
(7.38505e-58 -6.61115e-57 0)
(-1.9032e-58 -7.82323e-57 0)
(-2.4886e-58 -6.91666e-58 0)
(-2.21167e-59 -9.13783e-59 0)
(-2.92508e-60 -6.21435e-60 0)
(-3.98644e-61 1.32334e-63 0)
(-2.9399e-60 6.24149e-60 0)
(-2.22998e-59 9.18487e-59 0)
(-2.5157e-58 6.97409e-58 0)
(-2.0951e-58 7.90834e-57 0)
(5.11975e-58 7.2109e-57 0)
(7.4143e-58 -8.00069e-57 0)
(1.12386e-63 -1.58292e-56 0)
(-7.41409e-58 -8.00073e-57 0)
(-5.11691e-58 7.21026e-57 0)
(2.13794e-58 7.89934e-57 0)
(2.80726e-58 5.41156e-58 0)
(2.196e-37 -4.71999e-39 0)
(1.30499e-38 -3.08906e-40 0)
(5.97462e-40 -1.71582e-41 0)
(3.05636e-41 -7.45426e-43 0)
(1.30382e-42 -3.39725e-44 0)
(5.9164e-44 -1.35412e-45 0)
(2.3533e-45 -5.55869e-47 0)
(9.65601e-47 -2.06801e-48 0)
(3.58872e-48 -7.77646e-50 0)
(1.34914e-49 -2.70951e-51 0)
(4.69711e-51 -9.42338e-53 0)
(1.63321e-52 -3.08322e-54 0)
(5.34041e-54 -9.9874e-56 0)
(1.72951e-55 -3.0762e-57 0)
(5.3243e-57 -9.31167e-59 0)
(1.60816e-58 6.48747e-62 0)
(-2.53946e-60 2.11034e-59 0)
(-5.3855e-60 2.38994e-58 0)
(2.14539e-59 2.01838e-58 0)
(1.97346e-59 -4.61998e-58 0)
(-2.76998e-59 -4.43419e-58 0)
(-2.76994e-59 4.4342e-58 0)
(1.97346e-59 4.62012e-58 0)
(2.14499e-59 -2.01834e-58 0)
(-5.51939e-60 -2.38996e-58 0)
(-7.2297e-60 -2.11827e-59 0)
(-6.45163e-61 -2.77629e-60 0)
(-8.50686e-62 -1.77108e-61 0)
(-1.19202e-62 -1.17095e-62 0)
(-8.48237e-62 1.88661e-61 0)
(-6.50792e-61 2.79054e-60 0)
(-7.30811e-60 2.13568e-59 0)
(-6.08002e-60 2.41585e-58 0)
(1.48722e-59 2.20227e-58 0)
(2.15349e-59 -2.44391e-58 0)
(4.58209e-64 -4.83547e-58 0)
(-2.15344e-59 -2.44377e-58 0)
(-1.48643e-59 2.20205e-58 0)
(6.20474e-60 2.41306e-58 0)
(8.17119e-60 1.66086e-59 0)
(1.24919e-37 1.21947e-38 0)
(7.42894e-39 5.47631e-40 0)
(3.41032e-40 2.78473e-41 0)
(1.74557e-41 1.18524e-42 0)
(7.4611e-43 5.3744e-44 0)
(3.38725e-44 2.13584e-45 0)
(1.3493e-45 8.76085e-47 0)
(5.53874e-47 3.25402e-48 0)
(2.06086e-48 1.22301e-49 0)
(7.75049e-50 4.25599e-51 0)
(2.70083e-51 1.47954e-52 0)
(9.39416e-53 4.83618e-54 0)
(3.07401e-54 1.56596e-55 0)
(9.95844e-56 4.81956e-57 0)
(3.06758e-57 1.46139e-58 0)
(9.30316e-59 4.31969e-60 0)
(2.497e-60 6.84121e-61 0)
(-7.68568e-62 6.92256e-60 0)
(6.17979e-61 5.93992e-60 0)
(5.62353e-61 -1.33582e-59 0)
(-7.93485e-61 -1.28674e-59 0)