/*--------------------------------*- C++ -*----------------------------------*\
| =========                 |                                                 |
| \\      /  F ield         | OpenFOAM: The Open Source CFD Toolbox           |
|  \\    /   O peration     | Version:  2.4.0                                 |
|   \\  /    A nd           | Web:      www.OpenFOAM.org                      |
|    \\/     M anipulation  |                                                 |
\*---------------------------------------------------------------------------*/
FoamFile
{
    version     2.0;
    format      ascii;
    class       volVectorField;
    location    "0.4";
    object      U;
}
// * * * * * * * * * * * * * * * * * * * * * * * * * * * * * * * * * * * * * //

dimensions      [0 1 -1 0 0 0 0];

internalField   nonuniform List<vector> 
1915
(
(-4.09989e-33 4.79304e-33 0)
(-5.11316e-34 3.84475e-34 0)
(-4.2893e-35 3.6152e-35 0)
(-4.08116e-36 2.6437e-36 0)
(-3.09241e-37 2.07571e-37 0)
(-2.46203e-38 1.39516e-38 0)
(-1.69527e-39 9.61728e-40 0)
(-1.18197e-40 5.96358e-41 0)
(-7.45563e-42 3.70349e-42 0)
(-4.67337e-43 2.12928e-43 0)
(-2.72137e-44 1.2108e-44 0)
(-1.55959e-45 6.48852e-46 0)
(-8.44052e-47 3.41642e-47 0)
(-4.37506e-48 1.71698e-48 0)
(1.80809e-48 1.20123e-49 0)
(4.07701e-47 5.65169e-49 0)
(7.80417e-46 8.59993e-48 0)
(1.46159e-44 1.19197e-46 0)
(2.58757e-43 1.63362e-45 0)
(4.506e-42 1.92943e-44 0)
(7.3063e-41 2.30547e-43 0)
(1.1764e-39 2.15261e-42 0)
(1.72191e-38 2.14259e-41 0)
(2.54756e-37 1.29622e-40 0)
(3.29246e-36 9.59989e-40 0)
(-1.40755e-31 2.72173e-35 0)
(-1.6909e-30 6.0781e-36 0)
(-8.5418e-30 4.20709e-36 0)
(-1.19846e-28 5.09329e-37 0)
(-3.96433e-29 9.03621e-38 0)
(1.13877e-28 1.37053e-38 0)
(4.77633e-30 -2.70436e-39 0)
(-3.73918e-29 -1.31727e-36 0)
(7.33991e-31 -6.12e-35 0)
(4.23723e-29 -1.7441e-33 0)
(4.55643e-29 -3.71857e-32 0)
(4.61169e-29 -5.39187e-31 0)
(4.56171e-29 -3.71857e-32 0)
(4.2906e-29 -1.7441e-33 0)
(3.26783e-30 -6.1208e-35 0)
(5.11334e-32 -1.31743e-36 0)
(-2.65636e-30 3.70119e-39 0)
(-3.95926e-29 3.71803e-39 0)
(-2.70701e-30 2.81236e-39 0)
(-5.54298e-31 2.56804e-40 0)
(-4.51416e-32 3.07638e-41 0)
(-5.50869e-33 2.3632e-42 0)
(-4.3449e-34 2.09949e-43 0)
(-4.06557e-35 1.48136e-44 0)
(-2.97252e-36 1.12194e-45 0)
(-2.33585e-37 7.33864e-47 0)
(-1.57147e-38 4.93479e-48 0)
(-1.08418e-39 2.99681e-49 0)
(-6.72785e-41 1.82728e-50 0)
(-4.18064e-42 1.03341e-51 0)
(-2.4049e-43 5.69987e-53 0)
(-1.36811e-44 -1.61297e-53 0)
(-7.33438e-46 -3.87611e-52 0)
(-3.86221e-47 -7.57574e-51 0)
(-1.76501e-48 -1.46198e-49 0)
(3.66989e-48 -2.71783e-48 0)
(7.6578e-47 -5.01467e-47 0)
(1.48694e-45 -8.85839e-46 0)
(2.71775e-44 -1.56111e-44 0)
(4.79215e-43 -2.60778e-43 0)
(7.87115e-42 -4.36937e-42 0)
(1.26176e-40 -6.83065e-41 0)
(1.8459e-39 -1.07869e-39 0)
(2.681e-38 -1.55077e-38 0)
(3.42884e-37 -2.28248e-37 0)
(-1.26792e-32 1.3118e-32 0)
(-1.35594e-31 1.12003e-31 0)
(-6.64918e-31 1.16403e-30 0)
(-6.5731e-30 2.72768e-31 0)
(-2.16895e-30 -2.27963e-30 0)
(6.10692e-30 -4.53388e-31 0)
(3.69893e-31 1.46721e-30 0)
(-1.98848e-30 6.10696e-32 0)
(6.07224e-32 -7.88967e-31 0)
(2.38239e-30 -4.58777e-31 0)
(2.63614e-30 -8.2784e-32 0)
(2.67496e-30 -5.39561e-31 0)
(2.63024e-30 3.72524e-33 0)
(2.42381e-30 4.20663e-31 0)
(2.55778e-31 4.26794e-31 0)
(4.65356e-33 7.74494e-32 0)
(-2.06282e-31 3.85947e-31 0)
(-2.16434e-30 4.23512e-34 0)
(-2.10893e-31 -3.80692e-31 0)
(-4.43412e-32 -3.61142e-32 0)
(-4.09989e-33 -4.79304e-33 0)
(-5.11316e-34 -3.84475e-34 0)
(-4.2893e-35 -3.6152e-35 0)
(-4.08116e-36 -2.6437e-36 0)
(-3.09241e-37 -2.07571e-37 0)
(-2.46203e-38 -1.39516e-38 0)
(-1.69527e-39 -9.61728e-40 0)
(-1.18197e-40 -5.96358e-41 0)
(-7.45563e-42 -3.70349e-42 0)
(-4.67337e-43 -2.12928e-43 0)
(-2.72137e-44 -1.2108e-44 0)
(-1.55959e-45 -6.48852e-46 0)
(-8.44136e-47 -3.41666e-47 0)
(-4.53706e-48 -1.75958e-48 0)
(-1.20308e-48 -8.40933e-49 0)
(-1.4782e-47 -1.19337e-47 0)
(-2.0076e-46 -1.84228e-46 0)
(-2.67288e-45 -2.58904e-45 0)
(-2.99922e-44 -3.60257e-44 0)
(-3.31154e-43 -4.38305e-43 0)
(-2.53632e-42 -5.40843e-42 0)
(-1.70929e-41 -5.44344e-41 0)
(7.16262e-41 -5.88353e-40 0)
(2.66831e-39 -4.64369e-39 0)
(5.27405e-38 -4.61271e-38 0)
(-2.12109e-33 4.79629e-33 0)
(-1.53554e-32 1.07876e-32 0)
(-3.13775e-32 9.01122e-32 0)
(-2.34114e-31 1.95761e-32 0)
(-7.98807e-32 -1.74964e-31 0)
(2.10815e-31 -3.57769e-32 0)
(1.32966e-32 1.11871e-31 0)
(-6.14094e-32 5.45492e-33 0)
(6.48798e-33 -6.09331e-32 0)
(9.00073e-32 -3.63214e-32 0)
(1.07921e-31 -7.39094e-33 0)
(1.07098e-31 -3.38927e-32 0)
(9.78315e-32 4.31954e-34 0)
(9.32544e-32 3.27924e-32 0)
(1.38898e-32 3.3405e-32 0)
(5.46831e-34 6.98603e-33 0)
(-8.79886e-33 2.97215e-32 0)
(-7.93274e-32 4.19713e-35 0)
(-9.34379e-33 -2.92312e-32 0)
(-4.52983e-33 -3.24985e-33 0)
(-4.75589e-34 -4.4435e-34 0)
(-6.97947e-35 -3.80325e-35 0)
(-6.19758e-36 -3.63987e-36 0)
(-6.26296e-37 -2.75988e-37 0)
(-4.88398e-38 -2.19579e-38 0)
(-3.9987e-39 -1.51085e-39 0)
(-2.7963e-40 -1.05259e-40 0)
(-1.97738e-41 -6.63557e-42 0)
(-1.25759e-42 -4.15717e-43 0)
(-7.93818e-44 -2.41976e-44 0)
(-4.6403e-45 -1.38624e-45 0)
(-2.66684e-46 -7.50072e-47 0)
(-1.44971e-47 -4.00881e-48 0)
(-1.59612e-48 -7.94136e-49 0)
(-1.30688e-47 -1.00676e-47 0)
(-2.00079e-46 -1.58679e-46 0)
(-2.78668e-45 -2.45681e-45 0)
(-3.83343e-44 -3.44811e-44 0)
(-4.56926e-43 -4.80208e-43 0)
(-5.49004e-42 -5.79102e-42 0)
(-5.21328e-41 -7.08981e-41 0)
(-5.21884e-40 -6.86269e-40 0)
(-3.26274e-39 -7.07625e-39 0)
(-2.39649e-38 -4.58776e-38 0)
(-2.23061e-38 -3.53955e-37 0)
(-2.2335e-32 2.41202e-32 0)
(-3.61129e-32 8.51051e-33 0)
(-4.79731e-33 1.68238e-32 0)
(-6.52274e-33 2.92816e-33 0)
(-2.22575e-33 -2.13098e-32 0)
(4.93523e-33 -4.38843e-33 0)
(2.41466e-34 1.36342e-32 0)
(-9.88922e-34 6.66718e-34 0)
(4.26195e-34 -7.44916e-33 0)
(2.52222e-33 -4.50812e-33 0)
(3.42617e-33 -1.11503e-33 0)
(3.28481e-33 -5.92005e-33 0)
(2.61415e-33 -1.16058e-34 0)
(2.69464e-33 3.98585e-33 0)
(5.80953e-34 4.10613e-33 0)
(3.86922e-35 8.82044e-34 0)
(-2.55803e-34 3.64212e-33 0)
(-2.12068e-33 6.16433e-36 0)
(-2.94463e-34 -3.57326e-33 0)
(-2.86684e-34 -4.07066e-34 0)
(-3.34777e-35 -6.21189e-35 0)
(-5.2317e-36 -5.55672e-36 0)
(-4.87942e-37 -5.62286e-37 0)
(-5.05601e-38 -4.38374e-38 0)
(-4.05411e-39 -3.58628e-39 0)
(-3.36742e-40 -2.50633e-40 0)
(-2.39685e-41 -1.77123e-41 0)
(-1.71133e-42 -1.12595e-42 0)
(-1.10152e-43 -7.1042e-44 0)
(-7.00148e-45 -4.15137e-45 0)
(-4.12763e-46 -2.38512e-46 0)
(-2.38828e-47 -1.29366e-47 0)
(-1.96041e-48 -1.01864e-48 0)
(-1.12686e-47 -5.8427e-48 0)
(-1.76618e-46 -9.87037e-47 0)
(-2.7332e-45 -1.56314e-45 0)
(-3.83342e-44 -2.43163e-44 0)
(-5.33476e-43 -3.43937e-43 0)
(-6.426e-42 -4.83117e-42 0)
(-7.85807e-41 -5.9109e-41 0)
(-7.59065e-40 -7.34126e-40 0)
(-7.81645e-39 -7.29715e-39 0)
(-5.0574e-38 -7.68723e-38 0)
(-3.91897e-37 -5.22243e-37 0)
(-5.22403e-37 -4.08268e-36 0)
(-5.16075e-31 3.14487e-31 0)
(-5.83056e-31 2.25357e-32 0)
(-4.48319e-32 1.8784e-33 0)
(-8.29245e-33 1.98879e-34 0)
(-7.23871e-34 -1.44596e-33 0)
(-1.20134e-34 -3.01485e-34 0)
(-2.33916e-35 9.1936e-34 0)
(7.17821e-35 4.77781e-35 0)
(3.55871e-35 -5.05764e-34 0)
(3.66468e-35 -3.11056e-34 0)
(1.04788e-34 -8.55191e-35 0)
(7.85649e-35 -4.17807e-34 0)
(9.36672e-36 -1.25517e-35 0)
(4.69766e-35 2.70978e-34 0)
(2.89741e-35 2.80898e-34 0)
(3.3172e-36 6.41513e-35 0)
(-2.51057e-36 2.47211e-34 0)
(-1.98903e-35 4.88181e-37 0)
(-5.84622e-36 -2.41984e-34 0)
(-2.34046e-35 -2.95054e-35 0)
(-2.86331e-36 -4.69301e-36 0)
(-4.79671e-37 -4.39005e-37 0)
(-4.59244e-38 -4.54761e-38 0)
(-4.89796e-39 -3.64429e-39 0)
(-3.98896e-40 -3.02433e-40 0)
(-3.36199e-41 -2.15132e-41 0)
(-2.41472e-42 -1.5351e-42 0)
(-1.73721e-43 -9.87655e-44 0)
(-1.12365e-44 -6.27518e-45 0)
(-7.16768e-46 -3.69827e-46 0)
(-4.23652e-47 -2.13692e-47 0)
(-2.82155e-48 -1.36661e-48 0)
(-6.61554e-48 -3.80881e-48 0)
(-1.10128e-46 -6.55279e-47 0)
(-1.74328e-45 -1.12271e-45 0)
(-2.71067e-44 -1.79105e-44 0)
(-3.83179e-43 -2.81834e-43 0)
(-5.37909e-42 -4.02692e-42 0)
(-6.5756e-41 -5.75159e-41 0)
(-8.16166e-40 -7.1429e-40 0)
(-8.10972e-39 -9.10156e-39 0)
(-8.56485e-38 -9.267e-38 0)
(-5.90294e-37 -1.01746e-36 0)
(-4.80041e-36 -7.19952e-36 0)
(-9.80464e-36 -5.99661e-35 0)
(-1.61502e-32 3.54583e-31 0)
(-3.83288e-32 2.16463e-32 0)
(-3.99186e-33 -4.3155e-33 0)
(-7.34157e-34 -4.97018e-34 0)
(-6.81224e-35 -1.94573e-34 0)
(-1.84907e-35 -3.18374e-35 0)
(-2.45698e-36 7.85638e-35 0)
(7.16713e-36 4.07823e-36 0)
(2.24628e-36 -4.36175e-35 0)
(-7.6444e-37 -2.71644e-35 0)
(3.35682e-36 -8.63655e-36 0)
(1.3858e-36 -4.55689e-35 0)
(-3.22856e-36 -2.1887e-36 0)
(-2.65871e-37 2.31787e-35 0)
(1.42591e-36 2.42877e-35 0)
(2.15483e-37 5.63364e-36 0)
(2.12091e-37 2.13435e-35 0)
(1.53134e-36 4.62139e-38 0)
(-5.41831e-39 -2.086e-35 0)
(-1.44717e-36 -2.5803e-36 0)
(-1.8598e-37 -4.33028e-37 0)
(-3.21355e-38 -4.14501e-38 0)
(-3.16692e-39 -4.41442e-39 0)
(-3.43134e-40 -3.59217e-40 0)
(-2.84601e-41 -3.02469e-41 0)
(-2.42238e-42 -2.17115e-42 0)
(-1.76083e-43 -1.56106e-43 0)
(-1.27513e-44 -1.0093e-44 0)
(-8.3144e-46 -6.4357e-46 0)
(-5.32871e-47 -3.80124e-47 0)
(-3.39112e-48 -2.26081e-48 0)
(-4.37261e-48 -1.32091e-48 0)
(-7.32457e-47 -2.22469e-47 0)
(-1.25441e-45 -3.90366e-46 0)
(-2.0003e-44 -6.71485e-45 0)
(-3.14614e-43 -1.07977e-43 0)
(-4.49255e-42 -1.71262e-42 0)
(-6.41266e-41 -2.4844e-41 0)
(-7.95765e-40 -3.59999e-40 0)
(-1.01366e-38 -4.59967e-39 0)
(-1.03318e-37 -6.01224e-38 0)
(-1.14182e-36 -6.46547e-37 0)
(-8.34373e-36 -7.39693e-36 0)
(-7.49986e-35 -5.79916e-35 0)
(-2.22787e-34 -4.9811e-34 0)
(3.7096e-33 9.52648e-31 0)
(-3.7108e-33 6.69853e-32 0)
(-3.98725e-34 2.81396e-33 0)
(-1.02725e-34 7.14453e-35 0)
(-1.0189e-35 -1.09227e-35 0)
(-2.30185e-36 -2.13703e-36 0)
(-2.64244e-37 4.91564e-36 0)
(5.7677e-37 2.63405e-37 0)
(1.60546e-37 -2.75121e-36 0)
(-1.34157e-37 -1.73511e-36 0)
(1.86389e-37 -6.0338e-37 0)
(8.79095e-40 -3.10525e-36 0)
(-3.71339e-37 -1.79173e-37 0)
(-1.11499e-37 1.45782e-36 0)
(8.94003e-38 1.53848e-36 0)
(1.5446e-38 3.69556e-37 0)
(2.57042e-38 1.34603e-36 0)
(1.84881e-37 3.19592e-39 0)
(1.00128e-38 -1.31346e-36 0)
(-1.02443e-37 -1.68899e-37 0)
(-1.3371e-38 -2.90789e-38 0)
(-2.37823e-39 -2.86206e-39 0)
(-2.37622e-40 -3.09533e-40 0)
(-2.61221e-41 -2.56493e-41 0)
(-2.18662e-42 -2.181e-42 0)
(-1.87559e-43 -1.58441e-43 0)
(-1.37086e-44 -1.1467e-44 0)
(-9.96591e-46 -7.47392e-46 0)
(-6.5168e-47 -4.78729e-47 0)
(-4.25292e-48 -2.87038e-48 0)
(-1.59984e-48 -7.16864e-49 0)
(-2.50267e-47 -1.05434e-47 0)
(-4.38858e-46 -1.96881e-46 0)
(-7.54584e-45 -3.48365e-45 0)
(-1.21276e-43 -6.06279e-44 0)
(-1.92244e-42 -9.84413e-43 0)
(-2.78669e-41 -1.58544e-41 0)
(-4.03512e-40 -2.32768e-40 0)
(-5.15195e-39 -3.44514e-39 0)
(-6.73749e-38 -4.47049e-38 0)
(-7.28041e-37 -6.03357e-37 0)
(-8.47999e-36 -6.62976e-36 0)
(-7.1706e-35 -8.02609e-35 0)
(-7.31075e-34 -6.52852e-34 0)
(-3.94657e-33 -6.42822e-33 0)
(-2.3317e-32 6.32971e-31 0)
(9.84074e-33 4.5198e-32 0)
(7.4424e-34 2.59203e-33 0)
(6.18563e-35 1.28323e-34 0)
(2.1824e-36 7.83658e-36 0)
(-2.18967e-37 4.5363e-37 0)
(-4.29803e-38 4.03188e-37 0)
(3.05958e-38 2.28014e-38 0)
(9.09853e-39 -1.96222e-37 0)
(-8.88734e-39 -1.25293e-37 0)
(1.08193e-38 -4.86498e-38 0)
(-1.47182e-39 -2.61284e-37 0)
(-2.46208e-38 -1.78657e-38 0)
(-8.08483e-39 1.03194e-37 0)
(4.98498e-39 1.10023e-37 0)
(9.22609e-40 2.67282e-38 0)
(1.70715e-39 9.6186e-38 0)
(1.1945e-38 2.40357e-40 0)
(7.65609e-40 -9.37685e-38 0)
(-5.97443e-39 -1.21913e-38 0)
(-8.00972e-40 -2.15534e-39 0)
(-1.4467e-40 -2.14979e-40 0)
(-1.47207e-41 -2.3585e-41 0)
(-1.63347e-42 -1.97232e-42 0)
(-1.38392e-43 -1.69009e-43 0)
(-1.19427e-44 -1.23453e-44 0)
(-8.7984e-46 -8.9696e-46 0)
(-6.42166e-47 -5.86259e-47 0)
(-4.25175e-48 -3.76106e-48 0)
(-8.95263e-49 -2.33266e-49 0)
(-1.19161e-47 -2.10337e-49 0)
(-2.22317e-46 -3.90339e-48 0)
(-3.93198e-45 -7.36653e-47 0)
(-6.83953e-44 -1.36201e-45 0)
(-1.10985e-42 -2.37845e-44 0)
(-1.78622e-41 -4.08874e-43 0)
(-2.6202e-40 -6.53083e-42 0)
(-3.87469e-39 -1.03705e-40 0)
(-5.02332e-38 -1.49058e-39 0)
(-6.78001e-37 -2.17154e-38 0)
(-7.47818e-36 -2.74219e-37 0)
(-9.18856e-35 -3.64909e-36 0)
(-7.99467e-34 -3.89382e-35 0)
(-9.09469e-33 -4.67603e-34 0)
(-5.09765e-32 -3.62977e-33 0)
(-4.30739e-32 -2.61461e-31 0)
(-2.97692e-32 -1.12884e-32 0)
(-3.32369e-33 5.67091e-33 0)
(-6.60042e-34 6.04815e-34 0)
(-6.42683e-35 7.94377e-35 0)
(-7.89209e-36 6.49379e-36 0)
(-6.77353e-37 6.2181e-37 0)
(-6.1713e-38 4.53244e-38 0)
(-4.29735e-39 -8.07996e-39 0)
(-9.41645e-40 -7.18974e-39 0)
(7.67827e-40 -3.09632e-39 0)
(-1.22941e-40 -1.65929e-38 0)
(-1.71106e-39 -1.25935e-39 0)
(-5.49363e-40 6.01328e-39 0)
(3.0217e-40 6.46059e-39 0)
(5.76184e-41 1.60558e-39 0)
(1.10444e-40 5.63329e-39 0)
(7.65115e-40 1.49119e-41 0)
(5.12629e-41 -5.48584e-39 0)
(-3.71495e-40 -7.31508e-40 0)
(-5.0281e-41 -1.31216e-40 0)
(-9.21016e-42 -1.33261e-41 0)
(-9.45395e-43 -1.47558e-42 0)
(-1.05698e-43 -1.2489e-43 0)
(-9.00744e-45 -1.07667e-44 0)
(-7.80356e-46 -7.92716e-46 0)
(-5.76806e-47 -5.78225e-47 0)
(-4.21735e-48 -3.79891e-48 0)
(-2.91938e-49 -2.46872e-49 0)
(-3.07945e-49 -7.06418e-50 0)
(-5.67747e-48 -1.15265e-48 0)
(-1.06638e-46 -2.34195e-47 0)
(-1.94775e-45 -4.48148e-46 0)
(-3.38893e-44 -8.55778e-45 0)
(-5.74031e-43 -1.5121e-43 0)
(-9.15169e-42 -2.70226e-42 0)
(-1.42617e-40 -4.35456e-41 0)
(-2.05156e-39 -7.2616e-40 0)
(-2.91288e-38 -1.0488e-38 0)
(-3.69039e-37 -1.63339e-37 0)
(-4.71311e-36 -2.06989e-36 0)
(-5.01883e-35 -3.06203e-35 0)
(-5.60163e-34 -3.35563e-34 0)
(-4.3112e-33 -4.85223e-33 0)
(-3.62197e-32 -4.1088e-32 0)
(-5.76171e-31 -1.34209e-32 0)
(-6.45721e-31 -1.37001e-33 0)
(-4.95825e-32 -5.61854e-35 0)
(-9.18568e-33 -1.02608e-36 0)
(-7.75902e-34 1.42939e-37 0)
(-9.12765e-35 1.5588e-38 0)
(-7.29935e-36 2.75753e-39 0)
(-6.70917e-37 1.73119e-40 0)
(-4.9296e-38 -7.10362e-40 0)
(-3.8677e-39 -4.66661e-40 0)
(-2.10426e-40 -2.1398e-40 0)
(-2.48253e-41 -1.17159e-39 0)
(-1.00086e-40 -9.72499e-41 0)
(-3.12247e-41 3.7115e-40 0)
(1.61265e-41 4.02738e-40 0)
(3.17098e-42 1.00982e-40 0)
(6.15356e-42 3.51041e-40 0)
(4.18688e-41 9.58702e-43 0)
(2.87952e-42 -3.41641e-40 0)
(-2.01709e-41 -4.59677e-41 0)
(-2.78009e-42 -8.35891e-42 0)
(-5.13437e-43 -8.56305e-43 0)
(-5.33575e-44 -9.55302e-44 0)
(-5.9971e-45 -8.13263e-45 0)
(-5.15213e-46 -7.0385e-46 0)
(-4.47845e-47 -5.19935e-47 0)
(-3.32748e-48 -3.79869e-48 0)
(-2.4812e-49 -2.49856e-49 0)
(-1.09517e-49 -1.48823e-50 0)
(-1.90161e-48 2.39532e-50 0)
(-3.78574e-47 5.02817e-49 0)
(-7.18944e-46 9.89574e-48 0)
(-1.34139e-44 1.86422e-46 0)
(-2.35895e-43 3.4276e-45 0)
(-4.10253e-42 5.97602e-44 0)
(-6.60681e-41 1.01948e-42 0)
(-1.06544e-39 1.6212e-41 0)
(-1.546e-38 2.51627e-40 0)
(-2.30042e-37 3.42895e-39 0)
(-2.9313e-36 4.08021e-38 0)
(-4.0101e-35 1.57832e-37 0)
(-4.26807e-34 -9.77389e-36 0)
(-5.3256e-33 -4.68711e-34 0)
(-4.01621e-32 -1.25408e-32 0)
(-4.24086e-31 -2.33457e-31 0)
(-3.71611e-32 -2.93771e-32 0)
(-3.27756e-32 -8.29105e-33 0)
(-3.58942e-33 -6.55405e-33 0)
(-6.99388e-34 -6.34529e-34 0)
(-6.73399e-35 -7.9953e-35 0)
(-8.18791e-36 -6.48552e-36 0)
(-6.98374e-37 -5.98277e-37 0)
(-6.56532e-38 -4.39699e-38 0)
(-5.01027e-39 -3.45687e-39 0)
(-3.98034e-40 -2.55788e-40 0)
(-2.42547e-41 -2.83526e-41 0)
(-2.30695e-42 -6.98414e-41 0)
(-6.10221e-42 -6.17773e-42 0)
(-1.81818e-42 2.00508e-41 0)
(8.85322e-43 2.19397e-41 0)
(1.77245e-43 5.5899e-42 0)
(3.4693e-43 1.90938e-41 0)
(2.34276e-42 5.41495e-44 0)
(1.62709e-43 -1.85689e-41 0)
(-1.12599e-42 -2.54333e-42 0)
(-1.56391e-43 -4.66197e-43 0)
(-2.90866e-44 -4.83482e-44 0)
(-3.04122e-45 -5.4221e-45 0)
(-3.43064e-46 -4.6533e-46 0)
(-2.95843e-47 -4.0407e-47 0)
(-2.57559e-48 -3.00017e-48 0)
(-1.91678e-49 -2.19595e-49 0)
(-1.34166e-50 -1.39314e-50 0)
(1.22737e-50 1.1219e-50 0)
(2.67236e-49 2.57293e-49 0)
(5.29047e-48 5.23611e-48 0)
(9.99294e-47 1.04323e-46 0)
(1.84976e-45 1.98152e-45 0)
(3.2323e-44 3.69789e-44 0)
(5.56434e-43 6.50292e-43 0)
(8.89267e-42 1.13044e-41 0)
(1.4145e-40 1.81558e-40 0)
(2.03329e-39 2.8992e-39 0)
(2.96684e-38 4.04824e-38 0)
(3.73564e-37 5.29215e-37 0)
(4.95782e-36 3.51764e-36 0)
(5.19235e-35 -6.24178e-35 0)
(6.13748e-34 -4.4145e-33 0)
(4.50588e-33 -1.34028e-31 0)
(4.1799e-32 -2.97149e-30 0)
(-7.08884e-33 -3.52151e-31 0)
(1.64047e-33 -2.53391e-32 0)
(4.69163e-35 -1.68264e-33 0)
(-3.85244e-35 -9.91498e-35 0)
(-5.39863e-36 -8.38459e-36 0)
(-8.76791e-37 -6.42594e-37 0)
(-8.39096e-38 -5.81447e-38 0)
(-8.70247e-39 -4.40269e-39 0)
(-7.00495e-40 -3.49888e-40 0)
(-5.80918e-41 -2.54798e-41 0)
(-3.94859e-42 -2.43513e-42 0)
(-3.14399e-43 -4.36573e-42 0)
(-3.39522e-43 -4.06937e-43 0)
(-9.5911e-44 1.10937e-42 0)
(4.40719e-44 1.22613e-42 0)
(9.03552e-45 3.14697e-43 0)
(1.78038e-44 1.06701e-42 0)
(1.18682e-43 3.08773e-45 0)
(8.35678e-45 -1.03726e-42 0)
(-5.69784e-44 -1.43148e-43 0)
(-8.02089e-45 -2.64206e-44 0)
(-1.49783e-45 -2.75666e-45 0)
(-1.57974e-46 -3.10271e-46 0)
(-1.78658e-47 -2.67283e-47 0)
(-1.54902e-48 -2.32454e-48 0)
(-1.35025e-49 -1.72913e-49 0)
(-9.66476e-51 -1.26595e-50 0)
(8.32163e-51 -8.43184e-52 0)
(1.91822e-49 -2.16831e-52 0)
(3.90342e-48 -3.45837e-51 0)
(7.77636e-47 -7.03094e-50 0)
(1.47681e-45 -1.40131e-48 0)
(2.75574e-44 -2.66181e-47 0)
(4.84578e-43 -4.9691e-46 0)
(8.4282e-42 -8.737e-45 0)
(1.35699e-40 -1.51867e-43 0)
(2.18839e-39 -2.4342e-42 0)
(3.17409e-38 -3.86342e-41 0)
(4.72261e-37 -5.25716e-40 0)
(6.0132e-36 -6.23494e-39 0)
(8.22403e-35 -9.65176e-39 0)
(8.74179e-34 2.24116e-36 0)
(1.09016e-32 1.03818e-34 0)
(8.20382e-32 2.9557e-33 0)
(8.65515e-31 6.29942e-32 0)
(5.42073e-33 -3.55268e-31 0)
(-2.81272e-33 -2.5257e-32 0)
(-2.40733e-34 -1.28689e-33 0)
(-3.91506e-35 -5.27861e-35 0)
(-3.2095e-36 -2.30035e-36 0)
(-3.43606e-37 -1.16454e-37 0)
(-2.65572e-38 -8.83383e-39 0)
(-2.30355e-39 -6.53844e-40 0)
(-1.64844e-40 -5.28936e-41 0)
(-1.2337e-41 -3.80103e-42 0)
(-8.0348e-43 -3.06135e-43 0)
(-5.52733e-44 -2.49033e-43 0)
(-2.08174e-44 -2.3948e-44 0)
(-5.20446e-45 5.57205e-44 0)
(2.20242e-45 6.21681e-44 0)
(4.59934e-46 1.61478e-44 0)
(9.13557e-46 5.40552e-44 0)
(6.05265e-45 1.6044e-46 0)
(4.29018e-46 -5.25212e-44 0)
(-2.90442e-45 -7.34481e-45 0)
(-4.11562e-46 -1.36098e-45 0)
(-7.7086e-47 -1.43233e-46 0)
(-8.1662e-48 -1.61622e-47 0)
(-9.24658e-49 -1.39982e-48 0)
(-8.03622e-50 -1.21909e-49 0)
(-7.00488e-51 -9.09772e-51 0)
(-5.02789e-52 -6.91424e-52 0)
(4.07615e-52 -6.08314e-52 0)
(9.36815e-51 -1.2226e-50 0)
(1.8936e-49 -2.58881e-49 0)
(3.7374e-48 -5.26753e-48 0)
(7.04332e-47 -1.04959e-46 0)
(1.29917e-45 -1.99367e-45 0)
(2.26416e-44 -3.72095e-44 0)
(3.87987e-43 -6.54367e-43 0)
(6.18089e-42 -1.13766e-41 0)
(9.77026e-41 -1.8271e-40 0)
(1.39894e-39 -2.91752e-39 0)
(2.02273e-38 -4.07097e-38 0)
(2.53411e-37 -5.30953e-37 0)
(3.31444e-36 -3.46257e-36 0)
(3.44692e-35 6.57532e-35 0)
(3.96257e-34 4.53743e-33 0)
(2.87166e-33 1.37352e-31 0)
(2.46266e-32 3.04006e-30 0)
(-3.65127e-34 -4.39214e-32 0)
(1.84651e-34 -4.3545e-33 0)
(1.55511e-35 -2.9348e-34 0)
(1.97255e-36 -1.48284e-35 0)
(1.33148e-37 -8.70596e-37 0)
(1.0013e-38 -5.04028e-38 0)
(5.23699e-40 -3.70352e-39 0)
(2.32077e-41 -2.47071e-40 0)
(3.42122e-43 -1.77398e-41 0)
(-6.65564e-44 -1.14054e-42 0)
(-9.11175e-45 -7.62204e-44 0)
(-1.00906e-45 -1.73187e-44 0)
(-9.51237e-46 -1.58471e-45 0)
(-2.50156e-46 2.80236e-45 0)
(1.02765e-46 3.17018e-45 0)
(2.18591e-47 8.28703e-46 0)
(4.3686e-47 2.75737e-45 0)
(2.86618e-46 8.29406e-48 0)
(2.05252e-47 -2.67839e-45 0)
(-1.37467e-46 -3.76998e-46 0)
(-1.96831e-47 -7.00614e-47 0)
(-3.69157e-48 -7.40588e-48 0)
(-3.93509e-49 -8.36668e-49 0)
(-4.45858e-50 -7.26369e-50 0)
(-3.88901e-51 -6.32574e-51 0)
(-3.48233e-52 -4.72462e-52 0)
(-2.32751e-52 -3.63941e-53 0)
(-4.49369e-51 -4.30461e-53 0)
(-9.51277e-50 -8.7835e-52 0)
(-1.9354e-48 -1.84692e-50 0)
(-3.85616e-47 -3.73508e-49 0)
(-7.3241e-46 -7.37964e-48 0)
(-1.36695e-44 -1.39202e-46 0)
(-2.40413e-43 -2.57091e-45 0)
(-4.18269e-42 -4.48416e-44 0)
(-6.73632e-41 -7.6872e-43 0)
(-1.08682e-39 -1.21975e-41 0)
(-1.57703e-38 -1.89554e-40 0)
(-2.34792e-37 -2.52433e-39 0)
(-2.99158e-36 -2.79071e-38 0)
(-4.09541e-35 1.57747e-38 0)
(-4.35793e-34 1.22221e-35 0)
(-5.4421e-33 5.0309e-34 0)
(-4.10211e-32 1.30755e-32 0)
(-4.33483e-31 2.40471e-31 0)
(-5.81691e-33 -3.74976e-31 0)
(2.95767e-33 -2.65913e-32 0)
(2.47798e-34 -1.29003e-33 0)
(3.65602e-35 -4.77932e-35 0)
(2.79423e-36 -1.29559e-36 0)
(2.72805e-37 -2.11021e-38 0)
(1.94863e-38 7.26342e-40 0)
(1.55737e-39 9.41969e-41 0)
(1.0338e-40 7.63872e-42 0)
(7.19126e-42 4.90512e-43 0)
(4.42761e-43 3.09735e-44 0)
(2.76217e-44 1.14062e-45 0)
(1.53718e-45 3.34272e-47 0)
(7.81849e-47 1.37796e-46 0)
(9.5909e-48 1.50556e-46 0)
(1.28261e-48 3.96526e-47 0)
(2.08198e-48 1.30611e-46 0)
(1.35064e-47 3.99709e-49 0)
(9.72691e-49 -1.26825e-46 0)
(-6.47592e-48 -1.80353e-47 0)
(-9.32609e-49 -3.35594e-48 0)
(-1.74987e-49 -3.56941e-49 0)
(-1.87137e-50 -4.03504e-50 0)
(-2.11942e-51 -3.51539e-51 0)
(-1.85148e-52 -3.06114e-52 0)
(-1.72154e-53 -2.25348e-53 0)
(-2.56935e-53 6.66638e-54 0)
(-5.27826e-52 1.86951e-52 0)
(-1.11039e-50 4.05223e-51 0)
(-2.24645e-49 8.58288e-50 0)
(-4.44116e-48 1.74648e-48 0)
(-8.3814e-47 3.48027e-47 0)
(-1.54934e-45 6.61138e-46 0)
(-2.70487e-44 1.23417e-44 0)
(-4.64856e-43 2.17112e-43 0)
(-7.42199e-42 3.77827e-42 0)
(-1.178e-40 6.08733e-41 0)
(-1.69164e-39 9.82642e-40 0)
(-2.46075e-38 1.42769e-38 0)
(-3.0953e-37 2.13153e-37 0)
(-4.08804e-36 2.73864e-36 0)
(-4.27686e-35 3.8153e-35 0)
(-5.00719e-34 4.25797e-34 0)
(-3.66754e-33 5.63472e-33 0)
(-3.30561e-32 4.86113e-32 0)
(6.31893e-33 -3.71754e-31 0)
(-3.21398e-33 -2.62938e-32 0)
(-2.74388e-34 -1.24862e-33 0)
(-4.11229e-35 -4.4544e-35 0)
(-3.19854e-36 -9.59445e-37 0)
(-3.17375e-37 4.73886e-39 0)
(-2.30736e-38 2.96998e-39 0)
(-1.87424e-39 2.55454e-40 0)
(-1.26589e-40 1.97559e-41 0)
(-8.94738e-42 1.29345e-42 0)
(-5.60172e-43 8.47579e-44 0)
(-3.55009e-44 5.04479e-45 0)
(-2.06712e-45 2.98453e-46 0)
(-1.20047e-46 2.30032e-47 0)
(-6.27562e-48 8.00377e-48 0)
(-3.01047e-49 1.92593e-48 0)
(7.50633e-50 6.15834e-48 0)
(5.99518e-49 1.91234e-50 0)
(4.35521e-50 -5.97646e-48 0)
(-2.87794e-49 -8.54724e-49 0)
(-4.17926e-50 -1.59107e-49 0)
(-7.83716e-51 -1.69774e-50 0)
(-8.4189e-52 -1.91838e-51 0)
(-9.52773e-53 -1.67359e-52 0)
(-8.33871e-54 -1.45539e-53 0)
(-7.23156e-55 -1.00616e-54 0)
(-5.84491e-57 1.80862e-54 0)
(1.06566e-54 4.20884e-53 0)
(2.3293e-53 9.0699e-52 0)
(4.85377e-52 1.90811e-50 0)
(1.00202e-50 3.86026e-49 0)
(1.95905e-49 7.6323e-48 0)
(3.81872e-48 1.44074e-46 0)
(6.94509e-47 2.66431e-45 0)
(1.27215e-45 4.65444e-44 0)
(2.12636e-44 8.0057e-43 0)
(3.63904e-43 1.27985e-41 0)
(5.49053e-42 2.03449e-40 0)
(8.71788e-41 2.92921e-39 0)
(1.15288e-39 4.27568e-38 0)
(1.68131e-38 5.41714e-37 0)
(1.83541e-37 7.23465e-36 0)
(2.39143e-36 7.77266e-35 0)
(1.77386e-35 9.38871e-34 0)
(1.81759e-34 7.375e-33 0)
(6.33263e-33 -2.60681e-32 0)
(-3.28671e-33 -2.48903e-33 0)
(-2.87063e-34 -1.14735e-34 0)
(-4.70192e-35 -1.55123e-36 0)
(-3.89099e-36 5.79941e-37 0)
(-4.17645e-37 7.24682e-38 0)
(-3.24136e-38 8.22279e-39 0)
(-2.8137e-39 6.83653e-40 0)
(-2.01696e-40 5.76314e-41 0)
(-1.50899e-41 4.14337e-42 0)
(-9.96008e-43 2.97297e-43 0)
(-6.63313e-44 1.92089e-44 0)
(-4.04389e-45 1.2236e-45 0)
(-2.44537e-46 7.25378e-47 0)
(-1.38269e-47 4.49446e-48 0)
(-7.67734e-49 3.12139e-49 0)
(-3.65462e-50 2.85863e-49 0)
(2.42726e-50 1.4716e-51 0)
(1.82053e-51 -2.65651e-49 0)
(-1.26443e-50 -3.83083e-50 0)
(-1.84508e-51 -7.12703e-51 0)
(-3.45515e-52 -7.63877e-52 0)
(-3.72033e-53 -8.62511e-53 0)
(-4.20177e-54 -7.53988e-54 0)
(-3.24487e-55 -6.40404e-55 0)
(9.63834e-55 3.00341e-55 0)
(2.2186e-53 8.0203e-54 0)
(4.7786e-52 1.80113e-52 0)
(1.00491e-50 3.90482e-51 0)
(2.03235e-49 8.27947e-50 0)
(4.01738e-48 1.6863e-48 0)
(7.5828e-47 3.36478e-47 0)
(1.40232e-45 6.39901e-46 0)
(2.45035e-44 1.1965e-44 0)
(4.21633e-43 2.10764e-43 0)
(6.74526e-42 3.67565e-42 0)
(1.07316e-40 5.93161e-41 0)
(1.54693e-39 9.60265e-40 0)
(2.2597e-38 1.39812e-38 0)
(2.86202e-37 2.09619e-37 0)
(3.80601e-36 2.7023e-36 0)
(4.03144e-35 3.79251e-35 0)
(4.76527e-34 4.26463e-34 0)
(3.56277e-33 5.71808e-33 0)
(3.22671e-32 5.00083e-32 0)
(-6.82518e-33 -1.88356e-32 0)
(1.11769e-33 -1.39379e-33 0)
(-2.67787e-35 4.94245e-34 0)
(-5.90784e-35 6.40715e-35 0)
(-7.53554e-36 8.82543e-36 0)
(-1.15812e-36 7.7083e-37 0)
(-1.08594e-37 7.27315e-38 0)
(-1.1086e-38 5.53695e-39 0)
(-8.84554e-40 4.36208e-40 0)
(-7.27057e-41 3.00314e-41 0)
(-5.14328e-42 2.07904e-42 0)
(-3.64465e-43 1.30989e-43 0)
(-2.33285e-44 8.17114e-45 0)
(-1.47452e-45 4.75146e-46 0)
(-8.65207e-47 2.71487e-47 0)
(-4.97694e-48 1.47018e-48 0)
(-2.70098e-49 8.95516e-50 0)
(-1.32328e-50 3.95489e-51 0)
(-6.44656e-52 -1.14775e-50 0)
(-5.65169e-52 -1.68216e-51 0)
(-7.94945e-53 -3.13816e-52 0)
(-1.46197e-53 -3.37404e-53 0)
(-1.57358e-54 -3.80501e-54 0)
(-1.60953e-55 -3.33878e-55 0)
(3.72039e-55 -5.31595e-56 0)
(8.89917e-54 -5.76449e-55 0)
(1.99772e-52 -1.31652e-53 0)
(4.33054e-51 -2.94833e-52 0)
(9.18108e-50 -6.37858e-51 0)
(1.86968e-48 -1.34876e-49 0)
(3.73018e-47 -2.74053e-48 0)
(7.09273e-46 -5.45028e-47 0)
(1.32599e-44 -1.03368e-45 0)
(2.33523e-43 -1.92488e-44 0)
(4.07163e-42 -3.37971e-43 0)
(6.56821e-41 -5.8622e-42 0)
(1.06277e-39 -9.41666e-41 0)
(1.5453e-38 -1.50967e-39 0)
(2.30996e-37 -2.16541e-38 0)
(2.95102e-36 -3.11561e-37 0)
(4.06387e-35 -3.57322e-36 0)
(4.33999e-34 -3.59795e-35 0)
(5.47119e-33 1.59094e-35 0)
(4.14654e-32 7.53654e-33 0)
(4.46124e-31 2.10092e-31 0)
(-2.85195e-32 -3.38315e-31 0)
(-4.74394e-32 -1.57766e-32 0)
(-5.01297e-33 6.68719e-33 0)
(-9.44438e-34 7.21407e-34 0)
(-8.90034e-35 9.52851e-35 0)
(-1.06304e-35 7.80388e-36 0)
(-8.96231e-37 7.2194e-37 0)
(-8.34623e-38 5.30694e-38 0)
(-6.32703e-39 4.12296e-39 0)
(-4.97556e-40 2.77475e-40 0)
(-3.42187e-41 1.89993e-41 0)
(-2.36717e-42 1.17792e-42 0)
(-1.4905e-43 7.28195e-44 0)
(-9.29279e-45 4.18333e-45 0)
(-5.40096e-46 2.37106e-46 0)
(-3.08314e-47 1.2693e-47 0)
(-1.66557e-48 6.67173e-49 0)
(-8.79742e-50 3.34272e-50 0)
(-4.44243e-51 1.15084e-51 0)
(-2.41078e-52 6.01398e-54 0)
(-1.36266e-53 -9.66173e-54 0)
(-1.08245e-54 -1.26668e-54 0)
(-8.75908e-56 -1.53615e-55 0)
(-3.33451e-56 -1.65668e-56 0)
(-5.93991e-55 -6.93155e-56 0)
(-1.36041e-53 -1.61253e-54 0)
(-3.04743e-52 -3.70125e-53 0)
(-6.59432e-51 -8.30241e-52 0)
(-1.39475e-49 -1.7988e-50 0)
(-2.8345e-48 -3.81069e-49 0)
(-5.63872e-47 -7.75539e-48 0)
(-1.06959e-45 -1.54578e-46 0)
(-1.99236e-44 -2.93696e-45 0)
(-3.49871e-43 -5.48371e-44 0)
(-6.07178e-42 -9.64736e-43 0)
(-9.76075e-41 -1.67853e-41 0)
(-1.56952e-39 -2.69952e-40 0)
(-2.2723e-38 -4.32876e-39 0)
(-3.36728e-37 -6.12527e-38 0)
(-4.27802e-36 -8.3865e-37 0)
(-5.81586e-35 -7.41346e-36 0)
(-6.16466e-34 1.1669e-35 0)
(-7.60977e-33 4.00234e-33 0)
(-5.70144e-32 1.32913e-31 0)
(-5.88285e-31 3.09585e-30 0)
(-6.67443e-31 4.36469e-31 0)
(-7.85906e-31 3.15756e-32 0)
(-6.04661e-32 1.5494e-33 0)
(-1.11649e-32 5.78766e-35 0)
(-9.42082e-34 1.58947e-36 0)
(-1.10595e-34 2.69776e-38 0)
(-8.83532e-36 -7.78653e-40 0)
(-8.11267e-37 -1.07885e-40 0)
(-5.95929e-38 -8.82522e-42 0)
(-4.63337e-39 -5.6811e-43 0)
(-3.12136e-40 -3.59789e-44 0)
(-2.13927e-41 -2.07612e-45 0)
(-1.32739e-42 -1.18883e-46 0)
(-8.2116e-44 -6.38248e-48 0)
(-4.72024e-45 -3.37621e-49 0)
(-2.67669e-46 -1.69743e-50 0)
(-1.43354e-47 -8.16926e-52 0)
(-7.53206e-49 -3.95689e-53 0)
(-3.77767e-50 -2.19864e-53 0)
(-1.85453e-51 -3.03538e-54 0)
(-8.75836e-53 -5.49851e-55 0)
(-4.05584e-54 -5.91193e-56 0)
(-1.84664e-55 -6.55882e-57 0)
(-6.72935e-56 1.09671e-57 0)
(-1.40113e-54 4.05431e-56 0)
(-3.2146e-53 9.60321e-55 0)
(-7.20862e-52 2.20296e-53 0)
(-1.56135e-50 4.93769e-52 0)
(-3.30647e-49 1.06904e-50 0)
(-6.72683e-48 2.26267e-49 0)
(-1.34016e-46 4.60128e-48 0)
(-2.5452e-45 9.16112e-47 0)
(-4.74966e-44 1.73903e-45 0)
(-8.35244e-43 3.24255e-44 0)
(-1.45286e-41 5.69771e-43 0)
(-2.33941e-40 9.89033e-42 0)
(-3.77321e-39 1.58471e-40 0)
(-5.47349e-38 2.51284e-39 0)
(-8.14544e-37 3.42877e-38 0)
(-1.03736e-35 4.10904e-37 0)
(-1.41919e-34 9.20331e-37 0)
(-1.50905e-33 -1.34333e-34 0)
(-1.88273e-32 -6.37137e-33 0)
(-1.41757e-31 -1.82156e-31 0)
(-1.49643e-30 -3.88925e-30 0)
(-3.60871e-32 1.1942e-30 0)
(-4.35918e-32 7.71785e-32 0)
(-4.68031e-33 -3.66231e-33 0)
(-8.94898e-34 -6.07225e-34 0)
(-8.51517e-35 -9.19486e-35 0)
(-1.02519e-35 -7.73159e-36 0)
(-8.68876e-37 -7.21779e-37 0)
(-8.12636e-38 -5.31657e-38 0)
(-6.17982e-39 -4.13216e-39 0)
(-4.87264e-40 -2.78087e-40 0)
(-3.35808e-41 -1.90384e-41 0)
(-2.32718e-42 -1.18018e-42 0)
(-1.46748e-43 -7.29493e-44 0)
(-9.16105e-45 -4.19031e-45 0)
(-5.33024e-46 -2.37475e-46 0)
(-3.04572e-47 -1.27115e-47 0)
(-1.64676e-48 -6.67586e-49 0)
(-8.70909e-50 -3.3469e-50 0)
(-4.40184e-51 -1.64253e-51 0)
(-2.17261e-52 -7.75505e-53 0)
(-1.03199e-53 -3.59063e-54 0)
(-4.78838e-55 -1.61311e-55 0)
(-2.06889e-56 -7.00275e-57 0)
(1.89866e-56 4.10209e-57 0)
(4.71739e-55 1.06978e-55 0)
(1.08265e-53 2.53249e-54 0)
(2.42783e-52 5.81234e-53 0)
(5.25864e-51 1.30356e-51 0)
(1.11367e-49 2.82384e-50 0)
(2.2658e-48 5.98097e-49 0)
(4.51449e-47 1.21701e-47 0)
(8.5746e-46 2.4251e-46 0)
(1.60038e-44 4.60668e-45 0)
(2.81476e-43 8.59851e-44 0)
(4.8973e-42 1.51223e-42 0)
(7.88763e-41 2.6293e-41 0)
(1.27265e-39 4.22249e-40 0)
(1.84685e-38 6.73971e-39 0)
(2.7499e-37 9.38513e-38 0)
(3.50425e-36 1.21489e-36 0)
(4.79793e-35 7.46806e-36 0)
(5.10664e-34 -1.71476e-34 0)
(6.37799e-33 -1.10806e-32 0)
(4.80909e-32 -3.31759e-31 0)
(5.08138e-31 -7.27701e-30 0)
(-1.47545e-32 4.81643e-31 0)
(5.14857e-33 3.55761e-32 0)
(3.26341e-34 1.23213e-33 0)
(-6.26649e-36 2.75159e-36 0)
(-3.4017e-36 -6.71769e-36 0)
(-7.50757e-37 -7.14717e-37 0)
(-7.90399e-38 -7.14607e-38 0)
(-8.70639e-39 -5.51375e-39 0)
(-7.24812e-40 -4.36016e-40 0)
(-6.15236e-41 -3.00442e-41 0)
(-4.44886e-42 -2.08029e-42 0)
(-3.20897e-43 -1.31071e-43 0)
(-2.08173e-44 -8.17604e-45 0)
(-1.33067e-45 -4.75406e-46 0)
(-7.87908e-47 -2.71496e-47 0)
(-4.56776e-48 -1.46723e-48 0)
(-2.4967e-49 -7.75647e-50 0)
(-1.33206e-50 -3.91899e-51 0)
(-6.77658e-52 -1.93372e-52 0)
(-3.36109e-53 -9.18289e-54 0)
(-1.60168e-54 -4.2603e-55 0)
(-7.4317e-56 -1.9138e-56 0)
(-8.84084e-58 -9.03956e-58 0)
(5.93428e-56 -1.56351e-57 0)
(1.40799e-54 -3.69944e-56 0)
(3.23122e-53 -8.75575e-55 0)
(7.24622e-52 -2.00945e-53 0)
(1.56957e-50 -4.50657e-52 0)
(3.32411e-49 -9.76217e-51 0)
(6.76319e-48 -2.06766e-49 0)
(1.34756e-46 -4.20732e-48 0)
(2.55953e-45 -8.38415e-47 0)