/*--------------------------------*- C++ -*----------------------------------*\
| =========                 |                                                 |
| \\      /  F ield         | OpenFOAM: The Open Source CFD Toolbox           |
|  \\    /   O peration     | Version:  2.4.0                                 |
|   \\  /    A nd           | Web:      www.OpenFOAM.org                      |
|    \\/     M anipulation  |                                                 |
\*---------------------------------------------------------------------------*/
FoamFile
{
    version     2.0;
    format      ascii;
    class       volScalarField;
    location    "0.6";
    object      p;
}
// * * * * * * * * * * * * * * * * * * * * * * * * * * * * * * * * * * * * * //

dimensions      [0 2 -2 0 0 0 0];

internalField   nonuniform List<scalar> 
1600
(
7.43006e-06
-0.00117872
-0.00390904
-0.00758355
-0.0115292
-0.0152502
-0.0183888
-0.0206925
-0.0219937
-0.0221928
-0.0212441
-0.0191455
-0.0159306
-0.0116624
-0.00642806
-0.000335427
0.00649056
0.0139105
0.021773
0.029917
0.0381746
0.0463729
0.0543375
0.0618955
0.0688793
0.0751303
0.0805038
0.0848739
0.0881391
0.0902277
0.0911048
0.0907792
0.0893112
0.086822
0.0835048
0.0796389
0.0756045
0.0719103
0.0692244
0.0681084
0.00120136
1.07724e-05
-0.00220604
-0.00505778
-0.008101
-0.0109704
-0.0133813
-0.0151206
-0.0160382
-0.0160381
-0.0150701
-0.0131229
-0.0102171
-0.00640108
-0.00174584
0.00365788
0.00970291
0.0162682
0.0232215
0.0304212
0.0377195
0.0449644
0.0520026
0.0586829
0.0648593
0.070395
0.0751667
0.0790687
0.0820181
0.0839597
0.0848717
0.084771
0.0837195
0.0818302
0.0792738
0.0762844
0.073164
0.0702884
0.068105
0.0669945
0.00394665
0.00221889
-2.84099e-05
-0.00258827
-0.00521754
-0.00764637
-0.00965112
-0.0110601
-0.0117477
-0.0116301
-0.0106613
-0.00882819
-0.00614597
-0.00265445
0.00158547
0.0064948
0.0119791
0.0179308
0.0242318
0.0307551
0.0373678
0.0439332
0.0503136
0.056373
0.0619808
0.067015
0.071366
0.0749411
0.0776685
0.0795018
0.0804242
0.0804535
0.079646
0.0781007
0.0759618
0.0734203
0.0707162
0.0681312
0.0659239
0.0643063
0.0077109
0.00509928
0.0024577
-0.000171809
-0.00272744
-0.0050093
-0.00684314
-0.0080972
-0.00867307
-0.00850395
-0.00755318
-0.00581136
-0.00329332
-3.52827e-05
0.00390778
0.00846451
0.0135493
0.0190646
0.0249023
0.0309467
0.0370758
0.043164
0.0490848
0.054713
0.0599281
0.0646178
0.0686811
0.0720323
0.074605
0.0763557
0.0772673
0.0773533
0.07666
0.075269
0.0732975
0.0708974
0.0682611
0.0656036
0.0630122
0.0605434
0.0119002
0.00825987
0.00505058
0.0021694
-0.000488842
-0.00278026
-0.00457227
-0.00577023
-0.00630295
-0.00612209
-0.00520269
-0.00354177
-0.00115644
0.00191803
0.00563009
0.00991368
0.0146899
0.0198688
0.0253509
0.0310288
0.0367897
0.0425167
0.0480917
0.0533978
0.058322
0.0627583
0.0666111
0.0697986
0.0722562
0.07394
0.0748298
0.0749315
0.0742795
0.0729375
0.0709963
0.0685728
0.0658206
0.062903
0.0597492
0.0562789
0.0160883
0.0113764
0.00750666
0.004256
0.00137289
-0.00104172
-0.00288881
-0.00410646
-0.00464885
-0.00448592
-0.00360535
-0.00201213
0.000272522
0.0032123
0.00675706
0.010844
0.0153991
0.0203379
0.0255672
0.0309867
0.0364899
0.0419668
0.0473054
0.0523944
0.0571255
0.0613966
0.0651146
0.0681986
0.0705831
0.0722209
0.0730862
0.0731759
0.0725116
0.0711391
0.0691256
0.0665579
0.0635598
0.0602568
0.0564407
0.0519185
0.019966
0.0141874
0.00961077
0.00591465
0.00272196
0.000102242
-0.00187148
-0.00316503
-0.00375529
-0.00362947
-0.0027879
-0.00124432
0.000974693
0.00383034
0.00727223
0.0112392
0.0156599
0.0204539
0.0255326
0.0308003
0.0361555
0.0414924
0.046703
0.0516793
0.0563155
0.0605106
0.0641715
0.0672155
0.069574
0.0711943
0.0720428
0.0721063
0.0713931
0.0699326
0.067771
0.0649708
0.0616343
0.0578614
0.0533275
0.047749
0.0233001
0.0164792
0.0111778
0.00699266
0.00343779
0.000560223
-0.00158669
-0.00299197
-0.00365244
-0.00357106
-0.00276042
-0.00124321
0.000947958
0.00377072
0.00717321
0.0110944
0.0154644
0.0202052
0.0252308
0.0304488
0.0357605
0.0410629
0.0462501
0.0512151
0.0558523
0.0600598
0.0637421
0.0668129
0.0691978
0.0708371
0.0716879
0.0717259
0.0709462
0.0693627
0.0670041
0.0639131
0.0601777
0.0558817
0.0506013
0.0439789
0.0259084
0.0180723
0.0120432
0.00734664
0.00339991
0.000234046
-0.00211238
-0.00364783
-0.00438648
-0.00434559
-0.00354928
-0.00202916
0.000175734
0.00301879
0.00644576
0.0103947
0.0147959
0.0195723
0.0246397
0.0299068
0.0352768
0.0406476
0.0459137
0.0509675
0.0557016
0.0600113
0.0637966
0.0669655
0.0694363
0.0711405
0.0720246
0.0720525
0.071206
0.0694848
0.0669021
0.0634853
0.0593131
0.0544613
0.0484182
0.0407636
0.0276404
0.0188112
0.0120571
0.00683954
0.00248679
-0.000981504
-0.00353795
-0.00520757
-0.0060198
-0.00600492
-0.00519794
-0.00363916
-0.00137427
0.0015454
0.00506248
0.00911329
0.0136275
0.0185279
0.0237305
0.0291447
0.0346737
0.0402152
0.0456625
0.050906
0.055835
0.06034
0.064315
0.0676603
0.0702852
0.0721106
0.0730715
0.0731189
0.0722214
0.070365
0.0675492
0.0637888
0.0591579
0.053729
0.0469106
0.038226
0.0283633
0.0185542
0.0110791
0.00533818
0.000575935
-0.00319667
-0.00596099
-0.00775653
-0.00862658
-0.00861345
-0.00776248
-0.00612257
-0.00374616
-0.000689697
0.00298586
0.00721441
0.0119242
0.0170371
0.0224688
0.028128
0.0339171
0.0397323
0.0454648
0.0510015
0.0562272
0.0610258
0.0652838
0.0688921
0.0717491
0.0737637
0.074858
0.074969
0.0740514
0.0720779
0.0690353
0.0649275
0.0598268
0.0538062
0.0461981
0.0364724
0.0279513
0.0171661
0.00897212
0.00270998
-0.0024578
-0.00652715
-0.00948671
-0.0113893
-0.0122913
-0.0122463
-0.0113099
-0.00953938
-0.00699424
-0.00373628
0.000169516
0.00465417
0.00964392
0.0150594
0.0208148
0.026818
0.0329696
0.0391636
0.045288
0.0512253
0.0568542
0.0620514
0.0666937
0.0706612
0.0738398
0.0761245
0.0774225
0.077656
0.0767646
0.074707
0.0714573
0.0670099
0.0614366
0.0548133
0.0463967
0.0356036
0.0262792
0.014512
0.00559837
-0.00118057
-0.0067444
-0.0110952
-0.0142284
-0.0162096
-0.0171078
-0.0169884
-0.0159167
-0.013959
-0.0111817
-0.00765252
-0.00344067
0.00138162
0.00673822
0.012548
0.0187238
0.0251717
0.0317904
0.0384711
0.0450979
0.0515479
0.057693
0.0634012
0.0685387
0.0729729
0.0765752
0.0792249
0.0808124
0.0812429
0.0804394
0.0783455
0.074922
0.0701531
0.0641112
0.0568762
0.0476266
0.0357249
0.0232159
0.0104519
0.00081469
-0.00647517
-0.012421
-0.0170313
-0.0203079
-0.0223299
-0.0231794
-0.0229334
-0.0216681
-0.0194587
-0.0163793
-0.0125034
-0.00790508
-0.00265991
0.00315344
0.00945195
0.0161469
0.0231426
0.0303356
0.0376143
0.0448581
0.0519388
0.0587204
0.065061
0.0708151
0.0758357
0.0799781
0.0831033
0.0850828
0.0858019
0.0851651
0.0830986
0.0795479
0.0744863
0.0679864
0.0601321
0.0500194
0.0369531
0.0186212
0.0048368
-0.00553117
-0.0133249
-0.0196344
-0.0244751
-0.0278566
-0.029872
-0.0306175
-0.0301831
-0.0286563
-0.0261223
-0.0226632
-0.018359
-0.0132885
-0.00753097
-0.00116758
0.00571687
0.0130322
0.0206813
0.0285589
0.0365503
0.0445309
0.0523662
0.0599122
0.0670165
0.0735204
0.0792611
0.0840755
0.0878043
0.0902966
0.0914154
0.0910428
0.0890846
0.0854688
0.0801549
0.0732147
0.0647355
0.0537238
0.0394231
0.0123417
-0.002495
-0.0136042
-0.0218932
-0.0285433
-0.0335782
-0.0370162
-0.0389668
-0.0395419
-0.0388459
-0.0369793
-0.034038
-0.0301132
-0.0252917
-0.0196576
-0.0132937
-0.00628325
0.00128734
0.009327
0.0177377
0.0264128
0.0352353
0.0440768
0.052797
0.0612436
0.0692532
0.0766528
0.0832623
0.0888982
0.0933777
0.0965248
0.0981758
0.0981865
0.096438
0.0928364
0.0873243
0.0799703
0.0708637
0.0589127
0.043294
0.00420752
-0.011722
-0.023586
-0.0323597
-0.0393214
-0.0445049
-0.0479401
-0.0497548
-0.0500797
-0.0490358
-0.0467384
-0.043296
-0.0388097
-0.033374
-0.0270783
-0.0200086
-0.0122503
-0.00389042
0.00497981
0.0142624
0.0238504
0.0336255
0.0434564
0.0531977
0.0626892
0.0717562
0.0802108
0.0878542
0.09448
0.0998792
0.103847
0.106187
0.106725
0.105311
0.101824
0.096185
0.0884551
0.0787234
0.0657887
0.0487553
-0.00597093
-0.0230436
-0.0356789
-0.0449235
-0.05216
-0.0574354
-0.0607938
-0.0623859
-0.0623644
-0.0608703
-0.0580364
-0.0539857
-0.0488306
-0.0426741
-0.0356111
-0.0277308
-0.0191198
-0.00986488
-5.59942e-05
0.0102103
0.0208282
0.0316796
0.0426318
0.0535355
0.0642236
0.0745105
0.084193
0.0930524
0.100857
0.107369
0.112349
0.115565
0.116804
0.115878
0.112632
0.106957
0.0989043
0.088557
0.074592
0.0560337
-0.018407
-0.0366846
-0.050111
-0.0598082
-0.0672723
-0.0725675
-0.075757
-0.0770194
-0.0765346
-0.0744682
-0.0709736
-0.0661911
-0.0602464
-0.0532515
-0.0453071
-0.0365053
-0.0269327
-0.0166746
-0.00581789
0.00554425
0.0173093
0.0293615
0.0415689
0.0537802
0.0658229
0.0775018
0.0885986
0.0988739
0.108069
0.115914
0.122128
0.126439
0.128586
0.128336
0.125489
0.119898
0.111594
0.100651
0.0856079
0.0654008
-0.0333431
-0.0529021
-0.0671428
-0.0772672
-0.0848972
-0.0901197
-0.0930239
-0.0938233
-0.0927322
-0.0899459
-0.0856438
-0.0799864
-0.0731145
-0.0651506
-0.0562012
-0.0463603
-0.0357135
-0.0243424
-0.0123289
0.000240018
0.0132678
0.0266441
0.0402404
0.0539064
0.0674664
0.0807174
0.0934275
0.105336
0.116157
0.125582
0.133288
0.138952
0.142256
0.142912
0.14066
0.135305
0.126848
0.115346
0.0991771
0.0771822
-0.0510575
-0.0719935
-0.0870752
-0.0975913
-0.105305
-0.110335
-0.112804
-0.112973
-0.111098
-0.107413
-0.102128
-0.0954286
-0.0874726
-0.078394
-0.068305
-0.0573005
-0.0454633
-0.0328689
-0.0195912
-0.00570776
0.00869451
0.0235142
0.0386302
0.0538967
0.0691386
0.084148
0.0986812
0.112458
0.125162
0.136447
0.145941
0.153259
0.15802
0.159861
0.158452
0.15353
0.145053
0.133046
0.115708
0.0917687
-0.0718738
-0.094308
-0.110262
-0.121118
-0.128805
-0.133483
-0.135325
-0.13465
-0.131771
-0.126967
-0.120488
-0.11255
-0.103329
-0.0929727
-0.0815977
-0.0692983
-0.0561518
-0.0422247
-0.027579
-0.012279
0.00360237
0.0199775
0.0367373
0.0537454
0.070832
0.0877884
0.104363
0.120258
0.135129
0.148587
0.160206
0.169532
0.176106
0.179475
0.179218
0.174982
0.166663
0.154239
0.135692
0.109631
-0.0961754
-0.120263
-0.137123
-0.148246
-0.155752
-0.159867
-0.16083
-0.159038
-0.154875
-0.148682
-0.140756
-0.131346
-0.120653
-0.108836
-0.0960162
-0.082284
-0.067708
-0.0523415
-0.0362306
-0.0194211
-0.00196672
0.0160642
0.0345807
0.053462
0.0725494
0.0916399
0.110479
0.128755
0.146098
0.162076
0.176204
0.187953
0.196766
0.202085
0.203368
0.200147
0.192225
0.17951
0.159725
0.13134
-0.124425
-0.150368
-0.168171
-0.179449
-0.186563
-0.189827
-0.189578
-0.186315
-0.180517
-0.172601
-0.16292
-0.151765
-0.139362
-0.12588
-0.111443
-0.096135
-0.0800102
-0.0631039
-0.0454405
-0.0270418
-0.00793576
0.0118349
0.0322045
0.0530749
0.074307
0.0957106
0.117036
0.137965
0.158105
0.176986
0.19406
0.208712
0.220275
0.228059
0.231374
0.229593
0.222394
0.209571
0.188534
0.15759
-0.157195
-0.185257
-0.204036
-0.215302
-0.221723
-0.223746
-0.22184
-0.216649
-0.208772
-0.198719
-0.186913
-0.173691
-0.159304
-0.143933
-0.127696
-0.110666
-0.092877
-0.0743406
-0.0550521
-0.0350026
-0.0141872
0.00738466
0.0296805
0.0526341
0.0761347
0.100016
0.124042
0.147898
0.171179
0.193378
0.213888
0.232001
0.246925
0.257811
0.263778
0.263996
0.257958
0.245296
0.22302
0.189237
-0.195209
-0.225738
-0.245514
-0.256513
-0.26181
-0.26205
-0.257896
-0.250181
-0.23966
-0.226962
-0.212588
-0.196925
-0.180247
-0.16274
-0.144512
-0.125616
-0.106059
-0.0858177
-0.0648523
-0.0431148
-0.0205597
0.00284556
0.0271107
0.0522112
0.0780762
0.104574
0.131499
0.158551
0.185325
0.21129
0.235784
0.258003
0.277017
0.291787
0.301199
0.304151
0.299879
0.287767
0.264307
0.227347
-0.239413
-0.272865
-0.293626
-0.303959
-0.307507
-0.305212
-0.298015
-0.287002
-0.273129
-0.257162
-0.239696
-0.221162
-0.201854
-0.181951
-0.161542
-0.140646
-0.119232
-0.0972349
-0.074569
-0.0511382
-0.0268477
-0.00161399
0.0246248
0.0518971
0.0801843
0.109405
0.139398
0.169898
0.200518
0.230722
0.259802
0.286868
0.310841
0.330465
0.344335
0.350998
0.34933
0.338342
0.313825
0.273275
-0.291076
-0.328048
-0.349706
-0.358743
-0.359624
-0.353744
-0.342434
-0.327122
-0.309008
-0.289024
-0.267853
-0.245969
-0.223668
-0.201106
-0.178334
-0.155325
-0.131996
-0.108226
-0.0838739
-0.0587852
-0.0328069
-0.00579513
0.0223743
0.0517943
0.0825127
0.114515
0.147704
0.181874
0.216681
0.251608
0.285932
0.318687
0.348649
0.374324
0.393957
0.405642
0.407752
0.398745
0.373427
0.328775
-0.351954
-0.393222
-0.415524
-0.422257
-0.419112
-0.408169
-0.391313
-0.370412
-0.346965
-0.322075
-0.296509
-0.270757
-0.245092
-0.219623
-0.194338
-0.169141
-0.143881
-0.118368
-0.0923918
-0.0657313
-0.0381654
-0.00948068
0.0205193
0.0520036
0.0851011
0.119883
0.156339
0.194351
0.233652
0.273785
0.314048
0.353438
0.390605
0.423806
0.450885
0.469363
0.476922
0.471199
0.445565
0.396178
-0.424571
-0.471104
-0.493464
-0.496257
-0.487054
-0.468974
-0.444659
-0.416533
-0.386429
-0.355614
-0.3249
-0.294753
-0.265378
-0.236796
-0.2089
-0.181502
-0.154358
-0.127194
-0.0997186
-0.0716343
-0.0426433
-0.0124548
0.0192088
0.0526039
0.0879543
0.125436
0.165152
0.207105
0.25115
0.29694
0.343854
0.390916
0.436698
0.479236
0.515932
0.543611
0.559029
0.558605
0.533567
0.478694
-0.51269
-0.565608
-0.586761
-0.58293
-0.564625
-0.536499
-0.502202
-0.464813
-0.426501
-0.388637
-0.352007
-0.316975
-0.283613
-0.251797
-0.221284
-0.191759
-0.162863
-0.13422
-0.105448
-0.0761612
-0.0459801
-0.0145303
0.0185538
0.0536244
0.0910133
0.131019
0.173887
0.219777
0.268717
0.320542
0.374797
0.430625
0.486627
0.540689
0.589792
0.629954
0.656735
0.66479
0.642073
0.580922
-0.622184
-0.682506
-0.69982
-0.684929
-0.652952
-0.61074
-0.563194
-0.514085
-0.465826
-0.419762
-0.376513
-0.336221
-0.298729
-0.263698
-0.230694
-0.199238
-0.168833
-0.138985
-0.109207
-0.0790242
-0.0479694
-0.0155821
0.018594
0.0550128
0.0941233
0.136363
0.182144
0.231824
0.285666
0.343766
0.405953
0.471635
0.539608
0.607779
0.672823
0.729931
0.773204
0.794822
0.777712
0.709776
-0.762668
-0.830474
-0.838577
-0.805285
-0.752828
-0.691012
-0.626118
-0.562463
-0.502455
-0.447146
-0.396767
-0.351066
-0.309526
-0.271505
-0.23632
-0.203288
-0.171753
-0.141088
-0.110701
-0.0800217
-0.0484975
-0.0155842
0.0192639
0.0566019
0.0970001
0.141046
0.189338
0.242473
0.301007
0.365399
0.4359
0.512388
0.594114
0.679321
0.76468
0.844734
0.911997
0.955377
0.950204
0.876242
-0.950831
-1.02278
-1.01077
-0.946972
-0.864062
-0.775346
-0.688217
-0.607035
-0.533662
-0.46841
-0.410782
-0.359897
-0.314724
-0.274222
-0.237398
-0.203338
-0.171209
-0.14025
-0.109759
-0.0790795
-0.0475808
-0.0146428
0.0203615
0.0580815
0.0992044
0.144469
0.194674
0.250681
0.313398
0.383746
0.462564
0.550455
0.647506
0.752805
0.863639
0.97449
1.07658
1.15498
1.17409
1.09894
-1.21718
-1.27972
-1.22551
-1.11154
-0.984073
-0.859372
-0.744753
-0.643427
-0.555738
-0.480567
-0.416236
-0.360956
-0.313024
-0.270911
-0.233276
-0.198956
-0.166942
-0.136345
-0.106369
-0.0762832
-0.0453936
-0.0130203
0.0215285
0.0589807
0.100126
0.145842
0.197124
0.255108
0.321092
0.39654
0.483048
0.582235
0.695507
0.823558
0.965371
1.11672
1.26884
1.40348
1.47115
1.41123
-1.61772
-1.63096
-1.49153
-1.29672
-1.10589
-0.935006
-0.788312
-0.665545
-0.563982
-0.480138
-0.410639
-0.352514
-0.303265
-0.26083
-0.223517
-0.18993
-0.158907
-0.129456
-0.100713
-0.071897
-0.0422757
-0.0111329
0.0222632
0.0586928
0.09902
0.144234
0.195496
0.254197
0.322022
0.401018
0.493656
0.602847
0.731861
0.883978
1.06156
1.26423
1.48651
1.71008
1.8724
1.87275
-2.25447
-2.11587
-1.81359
-1.49443
-1.21742
-0.990513
-0.809414
-0.666452
-0.553623
-0.46401
-0.392065
-0.333469
-0.284901
-0.243803
-0.208187
-0.176484
-0.147429
-0.119974
-0.0932247
-0.0663852
-0.0387164
-0.00949706
0.0220126
0.0566097
0.0951919
0.138811
0.188741
0.246563
0.314287
0.3945
0.490565
0.606856
0.74899
0.923945
1.13978
1.40421
1.72094
2.07939
2.41785
2.58911
-3.35592
-2.78318
-2.1727
-1.67585
-1.29258
-1.00573
-0.794146
-0.637271
-0.519327
-0.429171
-0.35897
-0.30318
-0.257836
-0.220057
-0.187702
-0.159136
-0.13308
-0.108495
-0.0845084
-0.0603522
-0.035318
-0.00871629
0.0201625
0.0520886
0.0879401
0.128764
0.175856
0.230873
0.295996
0.374169
0.469453
0.587548
0.73653
0.927896
1.17797
1.50834
1.94099
2.49108
3.15796
3.79444
-5.52067
-3.66081
-2.43095
-1.71417
-1.24179
-0.921812
-0.704865
-0.553966
-0.445489
-0.365206
-0.304184
-0.256568
-0.218401
-0.186919
-0.160128
-0.136536
-0.114989
-0.0945605
-0.0744756
-0.054056
-0.032677
-0.00973057
0.0154094
0.0434244
0.0750956
0.111361
0.153392
0.202711
0.261364
0.33219
0.419272
0.528673
0.669678
0.857073
1.11541
1.48391
2.01598
2.8054
4.12342
6.0914
-9.20662
-4.51956
-2.30623
-1.42119
-0.95894
-0.682904
-0.512249
-0.400577
-0.32291
-0.266411
-0.223887
-0.190909
-0.164568
-0.142853
-0.12431
-0.107839
-0.0925813
-0.0778387
-0.0630208
-0.0476063
-0.0311123
-0.0130678
0.00701227
0.0296536
0.0554547
0.0851287
0.11956
0.159885
0.207627
0.264894
0.334747
0.421852
0.533756
0.683744
0.897448
1.22411
1.75391
2.73326
5.06142
9.86893
)
;

boundaryField
{
    movingWall
    {
        type            zeroGradient;
    }
    fixedWalls
    {
        type            zeroGradient;
    }
    frontAndBack
    {
        type            empty;
    }
}


// ************************************************************************* //
