/*--------------------------------*- C++ -*----------------------------------*\
| =========                 |                                                 |
| \\      /  F ield         | OpenFOAM: The Open Source CFD Toolbox           |
|  \\    /   O peration     | Version:  2.4.0                                 |
|   \\  /    A nd           | Web:      www.OpenFOAM.org                      |
|    \\/     M anipulation  |                                                 |
\*---------------------------------------------------------------------------*/
FoamFile
{
    version     2.0;
    format      ascii;
    class       surfaceScalarField;
    location    "0.6";
    object      phi;
}
// * * * * * * * * * * * * * * * * * * * * * * * * * * * * * * * * * * * * * //

dimensions      [0 3 -1 0 0 0 0];

internalField   nonuniform List<scalar> 
3120
(
2.53449e-09
-2.55076e-09
4.09729e-09
-1.5628e-09
2.25413e-09
1.84316e-09
-3.55401e-09
5.80813e-09
-1.31379e-08
9.58389e-09
-2.59888e-08
1.28509e-08
-4.14669e-08
1.54782e-08
-5.88958e-08
1.74289e-08
-7.76076e-08
1.87118e-08
-9.69653e-08
1.93578e-08
-1.16375e-07
1.94093e-08
-1.35289e-07
1.89147e-08
-1.53214e-07
1.79251e-08
-1.69708e-07
1.64934e-08
-1.8438e-07
1.46727e-08
-1.96897e-07
1.25169e-08
-2.06978e-07
1.00803e-08
-2.14395e-07
7.4178e-09
-2.18981e-07
4.58575e-09
-2.20623e-07
1.64199e-09
-2.1927e-07
-1.35362e-09
-2.14931e-07
-4.33898e-09
-2.07681e-07
-7.24964e-09
-1.97662e-07
-1.0019e-08
-1.85084e-07
-1.25785e-08
-1.70225e-07
-1.48588e-08
-1.53435e-07
-1.67903e-08
-1.3513e-07
-1.83045e-08
-1.15794e-07
-1.93358e-08
-9.59709e-08
-1.98233e-08
-7.62583e-08
-1.97126e-08
-5.72993e-08
-1.8959e-08
-3.97686e-08
-1.75308e-08
-2.4354e-08
-1.54146e-08
-1.17277e-08
-1.26263e-08
-2.49571e-09
-9.23192e-09
2.89816e-09
-5.39386e-09
4.35948e-09
-1.46136e-09
2.56198e-09
1.79745e-09
2.56195e-09
1.6151e-09
-4.16587e-09
-1.17351e-09
1.22581e-09
-1.17191e-08
1.23887e-08
-3.10815e-08
2.51705e-08
-5.90593e-08
3.75617e-08
-9.47088e-08
4.85004e-08
-1.3668e-07
5.74498e-08
-1.83434e-07
6.41827e-08
-2.3337e-07
6.86476e-08
-2.84906e-07
7.08942e-08
-3.36529e-07
7.10317e-08
-3.8682e-07
6.92058e-08
-4.34478e-07
6.55834e-08
-4.78329e-07
6.03449e-08
-5.17336e-07
5.36789e-08
-5.50599e-07
4.57799e-08
-5.77365e-07
3.68472e-08
-5.97032e-07
2.70848e-08
-6.09149e-07
1.67024e-08
-6.13423e-07
5.91565e-09
-6.09724e-07
-5.05241e-09
-5.98092e-07
-1.59715e-08
-5.78737e-07
-2.66039e-08
-5.52051e-07
-3.67054e-08
-5.18602e-07
-4.60272e-08
-4.79142e-07
-5.43188e-08
-4.34601e-07
-6.13317e-08
-3.86081e-07
-6.68248e-08
-3.34846e-07
-7.05707e-08
-2.82306e-07
-7.23633e-08
-2.29991e-07
-7.20272e-08
-1.79521e-07
-6.94297e-08
-1.32555e-07
-6.44965e-08
-9.07342e-08
-5.72355e-08
-5.5586e-08
-4.77746e-08
-2.83874e-08
-3.64305e-08
-9.94958e-09
-2.38317e-08
-2.91326e-10
-1.11196e-08
1.85498e-09
-3.48813e-10
4.41689e-09
-1.66882e-09
-2.49705e-09
-1.21209e-08
1.16778e-08
-3.40995e-08
3.43673e-08
-6.84676e-08
5.95387e-08
-1.14812e-07
8.3906e-08
-1.71846e-07
1.05535e-07
-2.37737e-07
1.23341e-07
-3.10347e-07
1.36793e-07
-3.87407e-07
1.45707e-07
-4.66631e-07
1.50118e-07
-5.45799e-07
1.502e-07
-6.22809e-07
1.46216e-07
-6.95713e-07
1.38488e-07
-7.62745e-07
1.27377e-07
-8.22334e-07
1.13267e-07
-8.73117e-07
9.65639e-08
-9.13954e-07
7.7684e-08
-9.43928e-07
5.70588e-08
-9.62359e-07
3.51326e-08
-9.68806e-07
1.23634e-08
-9.63082e-07
-1.07763e-08
-9.45255e-07
-3.37992e-08
-9.15654e-07
-5.62042e-08
-8.74881e-07
-7.74786e-08
-8.23806e-07
-9.71026e-08
-7.63569e-07
-1.14556e-07
-6.95575e-07
-1.29325e-07
-6.21482e-07
-1.40918e-07
-5.43178e-07
-1.48875e-07
-4.62756e-07
-1.52786e-07
-3.82469e-07
-1.52314e-07
-3.04678e-07
-1.47221e-07
-2.31775e-07
-1.374e-07
-1.66085e-07
-1.22925e-07
-1.09733e-07
-1.04127e-07
-6.44618e-08
-8.17014e-08
-3.13892e-08
-5.69043e-08
-1.0693e-08
-3.18157e-08
-1.23879e-09
-9.80298e-09
3.17808e-09
-5.57066e-09
3.07361e-09
-2.49855e-08
3.10927e-08
-5.97026e-08
6.90844e-08
-1.09898e-07
1.09734e-07
-1.74681e-07
1.48689e-07
-2.52344e-07
1.83198e-07
-3.40615e-07
2.11612e-07
-4.36876e-07
2.33053e-07
-5.38335e-07
2.47167e-07
-6.42164e-07
2.53947e-07
-7.45592e-07
2.53627e-07
-8.45977e-07
2.466e-07
-9.40858e-07
2.33369e-07
-1.02799e-06
2.1451e-07
-1.10538e-06
1.90653e-07
-1.17128e-06
1.62464e-07
-1.22423e-06
1.30639e-07
-1.26307e-06
9.58994e-08
-1.28693e-06
5.899e-08
-1.29525e-06
2.06803e-08
-1.28779e-06
-1.82366e-08
-1.26464e-06
-5.69439e-08
-1.22624e-06
-9.46036e-08
-1.17336e-06
-1.30361e-07
-1.10711e-06
-1.63353e-07
-1.02895e-06
-1.92718e-07
-9.40661e-07
-2.17612e-07
-8.44351e-07
-2.37228e-07
-7.42404e-07
-2.50822e-07
-6.37452e-07
-2.57738e-07
-5.32318e-07
-2.57449e-07
-4.2994e-07
-2.49599e-07
-3.33281e-07
-2.34058e-07
-2.45205e-07
-2.11001e-07
-1.68326e-07
-1.81006e-07
-1.04822e-07
-1.45206e-07
-5.62104e-08
-1.05516e-07
-2.31057e-08
-6.49204e-08
-4.98738e-09
-2.79213e-08
-1.80928e-09
-9.4716e-09
1.25452e-08
-3.81861e-08
5.98072e-08
-8.61023e-08
1.17001e-07
-1.52434e-07
1.76066e-07
-2.35612e-07
2.31867e-07
-3.33397e-07
2.80983e-07
-4.4305e-07
3.21265e-07
-5.61505e-07
3.51508e-07
-6.85523e-07
3.71185e-07
-8.11826e-07
3.8025e-07
-9.37197e-07
3.78998e-07
-1.05856e-06
3.67965e-07
-1.17305e-06
3.47854e-07
-1.27803e-06
3.19491e-07
-1.37116e-06
2.83785e-07
-1.4504e-06
2.41706e-07
-1.51404e-06
1.94276e-07
-1.56069e-06
1.42557e-07
-1.58935e-06
8.76472e-08
-1.59936e-06
3.06832e-08
-1.59043e-06
-2.71645e-08
-1.56268e-06
-8.46919e-08
-1.51662e-06
-1.40665e-07
-1.45315e-06
-1.9383e-07
-1.37358e-06
-2.4292e-07
-1.27962e-06
-2.86676e-07
-1.17336e-06
-3.23871e-07
-1.05726e-06
-3.53333e-07
-9.34094e-07
-3.73988e-07
-8.06932e-07
-3.84899e-07
-6.79057e-07
-3.85324e-07
-5.53883e-07
-3.74773e-07
-4.34849e-07
-3.53092e-07
-3.25294e-07
-3.20557e-07
-2.28296e-07
-2.78003e-07
-1.46507e-07
-2.26994e-07
-8.19646e-08
-1.70059e-07
-3.59244e-08
-1.10961e-07
-8.75802e-09
-5.50877e-08
-1.05672e-08
-1.31669e-08
2.57121e-08
-5.10437e-08
9.7684e-08
-1.12128e-07
1.78085e-07
-1.94559e-07
2.58497e-07
-2.95964e-07
3.33271e-07
-4.13475e-07
3.98494e-07
-5.43832e-07
4.51623e-07
-6.83512e-07
4.91187e-07
-8.28853e-07
5.16526e-07
-9.76177e-07
5.27574e-07
-1.12189e-06
5.24709e-07
-1.26255e-06
5.08628e-07
-1.39496e-06
4.80261e-07
-1.51617e-06
4.40708e-07
-1.62358e-06
3.91188e-07
-1.71489e-06
3.33015e-07
-1.78818e-06
2.6757e-07
-1.84192e-06
1.96296e-07
-1.87496e-06
1.20689e-07
-1.88657e-06
4.22925e-08
-1.87643e-06
-3.73005e-08
-1.84467e-06
-1.16453e-07
-1.79185e-06
-1.93492e-07
-1.71896e-06
-2.66713e-07
-1.62748e-06
-3.34402e-07
-1.5193e-06
-3.94859e-07
-1.39675e-06
-4.46422e-07
-1.26257e-06
-4.87516e-07
-1.11986e-06
-5.16695e-07
-9.72049e-07
-5.32708e-07
-8.22811e-07
-5.34562e-07
-6.75971e-07
-5.21613e-07
-5.35407e-07
-4.93656e-07
-4.04914e-07
-4.5105e-07
-2.88059e-07
-3.94858e-07
-1.8803e-07
-3.27023e-07
-1.07489e-07
-2.506e-07
-4.84658e-08
-1.69983e-07
-1.23396e-08
-9.12139e-08
-2.29068e-08
-1.66162e-08
4.23283e-08
-6.33317e-08
1.44399e-07
-1.37316e-07
2.52068e-07
-2.35623e-07
3.56805e-07
-3.55009e-07
4.52658e-07
-4.9191e-07
5.35395e-07
-6.42491e-07
6.02205e-07
-8.02744e-07
6.5144e-07
-9.68583e-07
6.82365e-07
-1.13595e-06
6.94943e-07
-1.30091e-06
6.89668e-07
-1.45971e-06
6.67431e-07
-1.60887e-06
6.29418e-07
-1.74519e-06
5.7703e-07
-1.86583e-06
5.11831e-07
-1.96832e-06
4.35501e-07
-2.05057e-06
3.49816e-07
-2.1109e-06
2.56632e-07
-2.14808e-06
1.57869e-07
-2.16131e-06
5.55147e-08
-2.15022e-06
-4.83843e-08
-2.11495e-06
-1.51725e-07
-2.05608e-06
-2.52357e-07
-1.9747e-06
-3.48095e-07
-1.87237e-06
-4.36737e-07
-1.75113e-06
-5.161e-07
-1.61349e-06
-5.84054e-07
-1.46244e-06
-6.38575e-07
-1.30132e-06
-6.77808e-07
-1.13389e-06
-7.00144e-07
-9.64146e-07
-7.04303e-07
-7.96316e-07
-6.89443e-07
-6.34698e-07
-6.55273e-07
-4.83563e-07
-6.02186e-07
-3.47004e-07
-5.31416e-07
-2.28814e-07
-4.45214e-07
-1.32359e-07
-3.47055e-07
-6.05179e-08
-2.41825e-07
-1.56934e-08
-1.36038e-07
-3.86002e-08
-1.98486e-08
6.21769e-08
-7.5054e-08
1.99605e-07
-1.61601e-07
3.38616e-07
-2.75494e-07
4.70697e-07
-4.12596e-07
5.8976e-07
-5.686e-07
6.91399e-07
-7.39056e-07
7.7266e-07
-9.19436e-07
8.3182e-07
-1.10522e-06
8.68149e-07
-1.29198e-06
8.81699e-07
-1.47544e-06
8.73133e-07
-1.65159e-06
8.43579e-07
-1.81669e-06
7.94514e-07
-1.96733e-06
7.27675e-07
-2.1005e-06
6.44996e-07
-2.21355e-06
5.48555e-07
-2.30428e-06
4.40548e-07
-2.37091e-06
3.23263e-07
-2.41212e-06
1.99073e-07
-2.42703e-06
7.04287e-08
-2.41527e-06
-6.0145e-08
-2.37694e-06
-1.90056e-07
-2.31265e-06
-3.16651e-07
-2.22351e-06
-4.37235e-07
-2.11115e-06
-5.4909e-07
-1.97774e-06
-6.49516e-07
-1.82591e-06
-7.35877e-07
-1.65883e-06
-8.05661e-07
-1.48008e-06
-8.56559e-07
-1.29367e-06
-8.86556e-07
-1.10393e-06
-8.94036e-07
-9.15472e-07
-8.77904e-07
-7.33024e-07
-8.37721e-07
-5.61358e-07
-7.73852e-07
-4.05145e-07
-6.87628e-07
-2.6884e-07
-5.81519e-07
-1.56577e-07
-4.59318e-07
-7.21148e-08
-3.26287e-07
-1.88562e-08
-1.89297e-07
-5.74564e-08
-2.29164e-08
8.50933e-08
-8.6316e-08
2.63004e-07
-1.85119e-07
4.37419e-07
-3.14324e-07
5.99902e-07
-4.68902e-07
7.44338e-07
-6.43777e-07
8.66274e-07
-8.3385e-07
9.62732e-07
-1.03405e-06
1.03202e-06
-1.2394e-06
1.0735e-06
-1.44509e-06
1.08739e-06
-1.64655e-06
1.07459e-06
-1.83948e-06
1.03652e-06
-2.01995e-06
9.74978e-07
-2.18436e-06
8.92089e-07
-2.32955e-06
7.90183e-07
-2.45275e-06
6.71762e-07
-2.55167e-06
5.3946e-07
-2.62442e-06
3.9602e-07
-2.66963e-06
2.44281e-07
-2.68637e-06
8.71717e-08
-2.67423e-06
-7.22926e-08
-2.63327e-06
-2.31014e-07
-2.5641e-06
-3.85823e-07
-2.46784e-06
-5.33492e-07
-2.34616e-06
-6.70764e-07
-2.20129e-06
-7.94394e-07
-2.03596e-06
-9.01201e-07
-1.85348e-06
-9.88145e-07
-1.65762e-06
-1.05241e-06
-1.45265e-06
-1.09153e-06
-1.2432e-06
-1.10348e-06
-1.03427e-06
-1.08684e-06
-8.31026e-07
-1.04096e-06
-6.38793e-07
-9.66086e-07
-4.62862e-07
-8.63559e-07
-3.08405e-07
-7.35976e-07
-1.80366e-07
-5.87357e-07
-8.3405e-08
-4.23248e-07
-2.18922e-08
-2.5081e-07
-7.93486e-08
-2.58753e-08
1.10969e-07
-9.72591e-08
3.34388e-07
-2.08089e-07
5.48248e-07
-3.52398e-07
7.4421e-07
-5.24269e-07
9.1621e-07
-7.17843e-07
1.05985e-06
-9.27344e-07
1.17223e-06
-1.14713e-06
1.25181e-06
-1.37177e-06
1.29813e-06
-1.59606e-06
1.31168e-06
-1.81512e-06
1.29365e-06
-2.02442e-06
1.24582e-06
-2.21982e-06
1.17037e-06
-2.39758e-06
1.06985e-06
-2.55441e-06
9.47014e-07
-2.68746e-06
8.04817e-07
-2.79435e-06
6.46349e-07
-2.87315e-06
4.74819e-07
-2.92241e-06
2.93541e-07
-2.94117e-06
1.05927e-07
-2.92895e-06
-8.45109e-08
-2.8858e-06
-2.74165e-07
-2.81228e-06
-4.5934e-07
-2.70951e-06
-6.36264e-07
-2.57915e-06
-8.01122e-07
-2.42345e-06
-9.50097e-07
-2.24522e-06
-1.07943e-06
-2.04785e-06
-1.18551e-06
-1.8353e-06
-1.26496e-06
-1.61205e-06
-1.31478e-06
-1.38305e-06
-1.33248e-06
-1.15365e-06
-1.31624e-06
-9.29526e-07
-1.26508e-06
-7.16564e-07
-1.17905e-06
-5.2073e-07
-1.05939e-06
-3.4796e-07
-9.08747e-07
-2.04051e-07
-7.31265e-07
-9.45824e-08
-5.32717e-07
-2.48726e-08
-3.2052e-07
-1.04221e-07
-2.87775e-08
1.39746e-07
-1.0803e-07
4.1364e-07
-2.30757e-07
6.70976e-07
-3.9005e-07
9.03503e-07
-5.79104e-07
1.10526e-06
-7.91262e-07
1.27201e-06
-1.02006e-06
1.40103e-06
-1.25926e-06
1.49101e-06
-1.50295e-06
1.54182e-06
-1.74554e-06
1.55428e-06
-1.98187e-06
1.52997e-06
-2.20715e-06
1.4711e-06
-2.41708e-06
1.38031e-06
-2.60781e-06
1.26058e-06
-2.77596e-06
1.11516e-06
-2.9186e-06
9.47458e-07
-3.0333e-06
7.61049e-07
-3.11809e-06
5.59611e-07
-3.17148e-06
3.46934e-07
-3.19247e-06
1.26911e-07
-3.18052e-06
-9.64532e-08
-3.13564e-06
-3.19045e-07
-3.05834e-06
-5.36642e-07
-2.94968e-06
-7.44925e-07
-2.81129e-06
-9.39509e-07
-2.64541e-06
-1.11598e-06
-2.45486e-06
-1.26998e-06
-2.24312e-06
-1.39725e-06
-2.01427e-06
-1.49382e-06
-1.77298e-06
-1.55607e-06
-1.5245e-06
-1.58096e-06
-1.27459e-06
-1.56615e-06
-1.02941e-06
-1.51026e-06
-7.95456e-07
-1.413e-06
-5.79409e-07
-1.27544e-06
-3.88024e-07
-1.10013e-06
-2.27997e-07
-8.91293e-07
-1.05853e-07
-6.54861e-07
-2.78668e-08
-3.98506e-07
-1.32088e-07
-3.16691e-08
1.71415e-07
-1.18767e-07
5.00738e-07
-2.53366e-07
8.05575e-07
-4.27617e-07
1.07775e-06
-6.33819e-07
1.31147e-06
-8.64499e-07
1.50269e-06
-1.11247e-06
1.649e-06
-1.37092e-06
1.74946e-06
-1.63342e-06
1.80432e-06
-1.89401e-06
1.81487e-06
-2.14723e-06
1.78318e-06
-2.38808e-06
1.71196e-06
-2.61213e-06
1.60435e-06
-2.81542e-06
1.46387e-06
-2.9945e-06
1.29424e-06
-3.14644e-06
1.0994e-06
-3.26877e-06
8.83379e-07
-3.3595e-06
6.50343e-07
-3.41712e-06
4.04548e-07
-3.44057e-06
1.5036e-07
-3.42928e-06
-1.07739e-07
-3.38318e-06
-3.65143e-07
-3.30271e-06
-6.17112e-07
-3.18885e-06
-8.58785e-07
-3.04316e-06
-1.0852e-06
-2.86782e-06
-1.29133e-06
-2.66563e-06
-1.47216e-06
-2.44009e-06
-1.62279e-06
-2.19537e-06
-1.73854e-06
-1.93634e-06
-1.81511e-06
-1.6685e-06
-1.8488e-06
-1.39801e-06
-1.83664e-06
-1.13155e-06
-1.77672e-06
-8.76258e-07
-1.6683e-06
-6.39576e-07
-1.51212e-06
-4.29131e-07
-1.31058e-06
-2.52571e-07
-1.06785e-06
-1.17419e-07
-7.90012e-07
-3.09398e-08
-4.84985e-07
-1.63028e-07
-3.45904e-08
2.06005e-07
-1.29595e-07
5.95743e-07
-2.76141e-07
9.52121e-07
-4.65414e-07
1.26703e-06
-6.88796e-07
1.53485e-06
-9.37971e-07
1.75186e-06
-1.20502e-06
1.91606e-06
-1.48251e-06
2.02695e-06
-1.76353e-06
2.08534e-06
-2.04173e-06
2.09307e-06
-2.31136e-06
2.05282e-06
-2.56727e-06
1.96787e-06
-2.80489e-06
1.84197e-06
-3.02021e-06
1.67919e-06
-3.20978e-06
1.48381e-06
-3.37064e-06
1.26026e-06
-3.50034e-06
1.01309e-06
-3.59691e-06
7.4691e-07
-3.65881e-06
4.66447e-07
-3.68496e-06
1.76513e-07
-3.67474e-06
-1.17958e-07
-3.628e-06
-4.11888e-07
-3.54507e-06
-7.00045e-07
-3.42682e-06
-9.77036e-07
-3.27469e-06
-1.23732e-06
-3.09076e-06
-1.47526e-06
-2.87776e-06
-1.68516e-06
-2.63916e-06
-1.86139e-06
-2.37916e-06
-1.99853e-06
-2.10278e-06
-2.09149e-06
-1.81579e-06
-2.13579e-06
-1.5247e-06
-2.12773e-06
-1.23675e-06
-2.06467e-06
-9.59722e-07
-1.94532e-06
-7.01886e-07
-1.76996e-06
-4.71799e-07
-1.54066e-06
-2.78132e-07
-1.26152e-06
-1.29476e-07
-9.38668e-07
-3.41522e-08
-5.80309e-07
-1.9718e-07
-3.75768e-08
2.43582e-07
-1.40628e-07
6.98794e-07
-2.99286e-07
1.11078e-06
-5.03728e-07
1.47147e-06
-7.44375e-07
1.77549e-06
-1.01204e-06
2.01952e-06
-1.29803e-06
2.20205e-06
-1.5943e-06
2.32321e-06
-1.89342e-06
2.38446e-06
-2.18869e-06
2.38834e-06
-2.47411e-06
2.33824e-06
-2.74437e-06
2.23813e-06
-2.99483e-06
2.09243e-06
-3.22148e-06
1.90584e-06
-3.42088e-06
1.68321e-06
-3.59013e-06
1.42951e-06
-3.72683e-06
1.14979e-06
-3.82904e-06
8.49113e-07
-3.89523e-06
5.32637e-07
-3.92431e-06
2.05592e-07
-3.9156e-06
-1.26668e-07
-3.86885e-06
-4.58636e-07
-3.78428e-06
-7.84617e-07
-3.6626e-06
-1.09871e-06
-3.50509e-06
-1.39483e-06
-3.31366e-06
-1.66669e-06
-3.09091e-06
-1.90791e-06
-2.84021e-06
-2.11209e-06
-2.56576e-06
-2.27298e-06
-2.27265e-06
-2.38461e-06
-1.96686e-06
-2.44158e-06
-1.65529e-06
-2.4393e-06
-1.34568e-06
-2.37429e-06
-1.04652e-06
-2.24448e-06
-7.66945e-07
-2.04953e-06
-5.16517e-07
-1.79109e-06
-3.05018e-07
-1.47302e-06
-1.42205e-07
-1.10148e-06
-3.75603e-08
-6.84953e-07
-2.3474e-07
-4.06601e-08
2.84242e-07
-1.51969e-07
8.10102e-07
-3.22987e-07
1.2818e-06
-5.42816e-07
1.6913e-06
-8.0085e-07
2.03353e-06
-1.08698e-06
2.30565e-06
-1.39172e-06
2.5068e-06
-1.70638e-06
2.63786e-06
-2.02303e-06
2.70111e-06
-2.33463e-06
2.69994e-06
-2.63496e-06
2.63857e-06
-2.91861e-06
2.52178e-06
-3.18091e-06
2.35474e-06
-3.41791e-06
2.14284e-06
-3.62626e-06
1.89155e-06
-3.80314e-06
1.6064e-06
-3.94627e-06
1.29291e-06
-4.05376e-06
9.56608e-07
-4.12416e-06
6.03029e-07
-4.15635e-06
2.37782e-07
-4.1496e-06
-1.33412e-07
-4.10357e-06
-5.04664e-07
-4.01832e-06
-8.69868e-07
-3.89437e-06
-1.22266e-06
-3.73279e-06
-1.55642e-06
-3.53523e-06
-1.86424e-06
-3.30411e-06
-2.13904e-06
-3.04261e-06
-2.3736e-06
-2.75484e-06
-2.56075e-06
-2.4459e-06
-2.69355e-06
-2.12194e-06
-2.76554e-06
-1.79017e-06
-2.77107e-06
-1.45886e-06
-2.7056e-06
-1.13722e-06
-2.56612e-06
-8.35297e-07
-2.35146e-06
-5.63739e-07
-2.06265e-06
-3.33549e-07
-1.70321e-06
-1.5578e-07
-1.27925e-06
-4.12176e-08
-7.99515e-07
-2.75958e-07
-4.38711e-08
3.28113e-07
-1.63716e-07
9.29948e-07
-3.47422e-07
1.4655e-06
-5.82913e-07
1.92679e-06
-8.58476e-07
2.30909e-06
-1.16301e-06
2.61018e-06
-1.48621e-06
2.83e-06
-1.81868e-06
2.97034e-06
-2.15206e-06
3.03449e-06
-2.47896e-06
3.02684e-06
-2.793e-06
2.95261e-06
-3.08872e-06
2.8175e-06
-3.36152e-06
2.62754e-06
-3.60755e-06
2.38886e-06
-3.82361e-06
2.10761e-06
-4.00708e-06
1.78987e-06
-4.15581e-06
1.44164e-06
-4.26806e-06
1.06885e-06
-4.34243e-06
6.77399e-07
-4.37784e-06
2.73199e-07
-4.37353e-06
-1.37723e-07
-4.32903e-06
-5.49167e-07
-4.24422e-06
-9.5468e-07
-4.11938e-06
-1.3475e-06
-3.95531e-06
-1.72049e-06
-3.75335e-06
-2.06619e-06
-3.51561e-06
-2.37678e-06
-3.24502e-06
-2.64419e-06
-2.94548e-06
-2.86028e-06
-2.62202e-06
-3.01701e-06
-2.28086e-06
-3.1067e-06
-1.92948e-06
-3.12244e-06
-1.57664e-06
-3.05845e-06
-1.23228e-06
-2.91048e-06
-9.07416e-07
-2.67632e-06
-6.1388e-07
-2.35618e-06
-3.64027e-07
-1.95306e-06
-1.7037e-07
-1.47291e-06
-4.51763e-08
-9.24709e-07
-3.21134e-07
-4.72412e-08
3.75355e-07
-1.75972e-07
1.05868e-06
-3.72769e-07
1.6623e-06
-6.24248e-07
2.17827e-06
-9.1748e-07
2.60232e-06
-1.24029e-06
2.93299e-06
-1.58148e-06
3.17119e-06
-1.93099e-06
3.31985e-06
-2.27997e-06
3.38347e-06
-2.62077e-06
3.36764e-06
-2.9469e-06
3.27874e-06
-3.25294e-06
3.12354e-06
-3.53443e-06
2.90903e-06
-3.78772e-06
2.64215e-06
-4.00986e-06
2.32976e-06
-4.19849e-06
1.9785e-06
-4.35168e-06
1.59483e-06
-4.46788e-06
1.18505e-06
-4.54582e-06
7.55341e-07
-4.58449e-06
3.11861e-07
-4.58306e-06
-1.39149e-07
-4.54096e-06
-5.91262e-07
-4.45788e-06
-1.03777e-06
-4.3338e-06
-1.47157e-06
-4.16917e-06
-1.88513e-06
-3.96496e-06
-2.2704e-06
-3.72284e-06
-2.61889e-06
-3.44538e-06
-2.92166e-06
-3.13615e-06
-3.16951e-06
-2.79998e-06
-3.35318e-06
-2.44305e-06
-3.46363e-06
-2.07304e-06
-3.49246e-06
-1.69913e-06
-3.43235e-06
-1.33201e-06
-3.2776e-06
-9.83698e-07
-3.02463e-06
-6.67321e-07
-2.67256e-06
-3.96745e-07
-2.22364e-06
-1.8614e-07
-1.68351e-06
-4.94893e-08
-1.06136e-06
-3.70623e-07
-5.08064e-08
4.26161e-07
-1.88851e-07
1.19672e-06
-3.99222e-07
1.87267e-06
-6.67062e-07
2.44611e-06
-9.78078e-07
2.91334e-06
-1.31891e-06
3.27382e-06
-1.67743e-06
3.5297e-06
-2.04287e-06
3.68529e-06
-2.40594e-06
3.74653e-06
-2.75877e-06
3.72047e-06
-3.09485e-06
3.61482e-06
-3.40891e-06
3.4376e-06
-3.69672e-06
3.19684e-06
-3.95497e-06
2.9004e-06
-4.18106e-06
2.55584e-06
-4.37296e-06
2.1704e-06
-4.52908e-06
1.75095e-06
-4.64812e-06
1.30409e-06
-4.72899e-06
8.36218e-07
-4.77078e-06
3.53645e-07
-4.77265e-06
-1.37274e-07
-4.73391e-06
-6.29999e-07
-4.65402e-06
-1.11766e-06
-4.53263e-06
-1.59295e-06
-4.36977e-06
-2.04799e-06
-4.16592e-06
-2.47426e-06
-3.92223e-06
-2.86258e-06
-3.64072e-06
-3.20317e-06
-3.32452e-06
-3.48571e-06
-2.97809e-06
-3.69961e-06
-2.60744e-06
-3.83428e-06
-2.22029e-06
-3.8796e-06
-1.82621e-06
-3.82644e-06
-1.43657e-06
-3.66724e-06
-1.06446e-06
-3.39674e-06
-7.24413e-07
-3.01261e-06
-4.31988e-07
-2.51606e-06
-2.03261e-07
-1.91224e-06
-5.42117e-08
-1.21041e-06
-4.24835e-07
-5.46101e-08
4.80771e-07
-2.02488e-07
1.3446e-06
-4.27011e-07
2.09719e-06
-7.11629e-07
2.73073e-06
-1.0405e-06
3.24221e-06
-1.39896e-06
3.63228e-06
-1.77385e-06
3.90459e-06
-2.15372e-06
4.06516e-06
-2.52885e-06
4.12166e-06
-2.89125e-06
4.08288e-06
-3.23452e-06
3.95809e-06
-3.55362e-06
3.75671e-06
-3.84473e-06
3.48795e-06
-4.10499e-06
3.16065e-06
-4.33227e-06
2.78313e-06
-4.52502e-06
2.36315e-06
-4.68206e-06
1.90799e-06
-4.80244e-06
1.42447e-06
-4.88532e-06
9.19105e-07
-4.92993e-06
3.98249e-07
-4.93545e-06
-1.31752e-07
-4.90108e-06
-6.64373e-07
-4.82601e-06
-1.19273e-06
-4.70955e-06
-1.70942e-06
-4.5512e-06
-2.20633e-06
-4.35087e-06
-2.67459e-06
-4.10904e-06
-3.10441e-06
-3.82706e-06
-3.48516e-06
-3.50738e-06
-3.80538e-06
-3.15393e-06
-4.05306e-06
-2.77235e-06
-4.21587e-06
-2.37025e-06
-4.2817e-06
-1.95744e-06
-4.23925e-06
-1.54594e-06
-4.07873e-06
-1.14994e-06
-3.79274e-06
-7.85481e-07
-3.37707e-06
-4.70048e-07
-2.8315e-06
-2.21914e-07
-2.16037e-06
-5.94046e-08
-1.37292e-06
-4.8424e-07
-5.87086e-08
5.3948e-07
-2.17058e-07
1.50295e-06
-4.56425e-07
2.33656e-06
-7.58285e-07
3.03259e-06
-1.10501e-06
3.58894e-06
-1.48048e-06
4.00775e-06
-1.87043e-06
4.29455e-06
-2.2627e-06
4.45742e-06
-2.64724e-06
4.50621e-06
-3.01605e-06
4.45168e-06
-3.36293e-06
4.30497e-06
-3.68331e-06
4.07708e-06
-3.9739e-06
3.77854e-06
-4.23246e-06
3.41921e-06
-4.45749e-06
3.00816e-06
-4.64804e-06
2.5537e-06
-4.80345e-06
2.0634e-06
-4.92322e-06
1.54424e-06
-5.00686e-06
1.00274e-06
-5.05375e-06
4.45146e-07
-5.06317e-06
-1.22337e-07
-5.03419e-06
-6.93354e-07
-4.96575e-06
-1.26116e-06
-4.85675e-06
-1.81842e-06
-4.70613e-06
-2.35696e-06
-4.51308e-06
-2.86764e-06
-4.27728e-06
-3.34021e-06
-3.99921e-06
-3.76323e-06
-3.68047e-06
-4.12412e-06
-3.32418e-06
-4.40934e-06
-2.93539e-06
-4.60466e-06
-2.52139e-06
-4.6957e-06
-2.09203e-06
-4.6686e-06
-1.65991e-06
-4.51086e-06
-1.24027e-06
-4.21238e-06
-8.50834e-07
-3.7665e-06
-5.11234e-07
-3.1711e-06
-2.42301e-07
-2.42931e-06
-6.51378e-08
-1.55008e-06
-5.49377e-07
-6.31776e-08
6.02657e-07
-2.32793e-07
1.67256e-06
-4.87844e-07
2.59161e-06
-8.07462e-07
3.3522e-06
-1.17195e-06
3.95343e-06
-1.56352e-06
4.39932e-06
-1.96674e-06
4.69776e-06
-2.36874e-06
4.85943e-06
-2.75925e-06
4.89672e-06
-3.1304e-06
4.82282e-06
-3.47642e-06
4.651e-06
-3.79336e-06
4.39403e-06
-4.0787e-06
4.06388e-06
-4.33098e-06
3.67149e-06
-4.54951e-06
3.2267e-06
-4.73409e-06
2.73827e-06
-4.88471e-06
2.21403e-06
-5.00143e-06
1.66096e-06
-5.08415e-06
1.08545e-06
-5.13253e-06
4.93531e-07
-5.14594e-06
-1.08931e-07
-5.12338e-06
-7.15917e-07
-5.06353e-06
-1.32101e-06
-4.96483e-06
-1.91711e-06
-4.8256e-06
-2.49619e-06
-4.64422e-06
-3.04902e-06
-4.41941e-06
-3.56502e-06
-4.15059e-06
-4.03205e-06
-3.83825e-06
-4.43647e-06
-3.48445e-06
-4.76314e-06
-3.09331e-06
-4.99579e-06
-2.67153e-06
-5.11749e-06
-2.22877e-06
-5.11136e-06
-1.77798e-06
-4.96164e-06
-1.3355e-06
-4.65486e-06
-9.20774e-07
-4.18123e-06
-5.55891e-07
-3.53598e-06
-2.64659e-07
-2.72054e-06
-7.14953e-08
-1.74325e-06
-6.20873e-07
-6.81204e-08
6.70778e-07
-2.50005e-07
1.85445e-06
-5.2177e-07
2.86338e-06
-8.59728e-07
3.69016e-06
-1.24174e-06
4.33544e-06
-1.64812e-06
4.8057e-06
-2.06218e-06
5.11182e-06
-2.47043e-06
5.26768e-06
-2.8625e-06
5.28878e-06
-3.23085e-06
5.19118e-06
-3.57042e-06
4.99056e-06
-3.87811e-06
4.70173e-06
-4.1524e-06
4.33817e-06
-4.39286e-06
3.91194e-06
-4.59977e-06
3.43361e-06
-4.77383e-06
2.91233e-06
-4.91584e-06
2.35604e-06
-5.02649e-06
1.77161e-06
-5.10619e-06
1.16516e-06
-5.15494e-06
5.42286e-07
-5.17225e-06
-9.16217e-08
-5.15708e-06
-7.31086e-07
-5.10787e-06
-1.37022e-06
-5.0226e-06
-2.00239e-06
-4.89888e-06
-2.6199e-06
-4.73421e-06
-3.21369e-06
-4.52621e-06
-3.77302e-06
-4.27301e-06
-4.28525e-06
-3.97373e-06
-4.73575e-06
-3.62904e-06
-5.10783e-06
-3.2418e-06
-5.38304e-06
-2.81769e-06
-5.5416e-06
-2.36586e-06
-5.56319e-06
-1.89939e-06
-5.42811e-06
-1.43553e-06
-5.11872e-06
-9.95603e-07
-4.62116e-06
-6.04415e-07
-3.92717e-06
-2.89277e-07
-3.03568e-06
-7.85823e-08
-1.95394e-06
-6.99455e-07
-7.36804e-08
7.44458e-07
-2.69123e-07
2.04989e-06
-5.58883e-07
3.15314e-06
-9.15826e-07
4.04711e-06
-1.3149e-06
4.73452e-06
-1.73428e-06
5.22508e-06
-2.15596e-06
5.5335e-06
-2.56591e-06
5.67763e-06
-2.9539e-06
5.67678e-06
-3.31305e-06
5.55033e-06
-3.63927e-06
5.31678e-06
-3.93065e-06
4.99311e-06
-4.18693e-06
4.59445e-06
-4.40894e-06
4.13395e-06
-4.59816e-06
3.62282e-06
-4.75633e-06
3.07051e-06
-4.88519e-06
2.48489e-06
-4.98618e-06
1.8726e-06
-5.0603e-06
1.23928e-06
-5.10795e-06
5.89936e-07
-5.12884e-06
-7.07293e-08
-5.12194e-06
-7.37983e-07
-5.08548e-06
-1.40668e-06
-5.01696e-06
-2.07091e-06
-4.9133e-06
-2.72356e-06
-4.77102e-06
-3.35598e-06
-4.58649e-06
-3.95754e-06
-4.35639e-06
-4.51536e-06
-4.07816e-06
-5.01397e-06
-3.75072e-06
-5.43526e-06
-3.37522e-06
-5.75854e-06
-2.95587e-06
-5.96094e-06
-2.50083e-06
-6.01823e-06
-2.02293e-06
-5.90602e-06
-1.54014e-06
-5.60151e-06
-1.07563e-06
-5.08566e-06
-6.57287e-07
-4.34551e-06
-3.16518e-07
-3.37644e-06
-8.65352e-08
-2.18392e-06
-7.8599e-07
-8.00578e-08
8.24516e-07
-2.90732e-07
2.26057e-06
-6.00092e-07
3.4625e-06
-9.76725e-07
4.42374e-06
-1.39209e-06
5.14989e-06
-1.82193e-06
5.65492e-06
-2.2469e-06
5.95848e-06
-2.65268e-06
6.0834e-06
-3.02948e-06
6.05358e-06
-3.37146e-06
5.89231e-06
-3.67592e-06
5.62123e-06
-3.94251e-06
5.2597e-06
-4.17254e-06
4.82448e-06
-4.36836e-06
4.32977e-06
-4.53283e-06
3.78729e-06
-4.66892e-06
3.2066e-06
-4.7794e-06
2.59537e-06
-4.86656e-06
1.95976e-06
-4.93205e-06
1.30478e-06
-4.97676e-06
6.3464e-07
-5.00064e-06
-4.68416e-08
-5.00274e-06
-7.35885e-07
-4.9811e-06
-1.42833e-06
-4.93281e-06
-2.1192e-06
-4.85408e-06
-2.80229e-06
-4.74042e-06
-3.46963e-06
-4.58689e-06
-4.11108e-06
-4.38847e-06
-4.71377e-06
-4.1407e-06
-5.26175e-06
-3.84033e-06
-5.73563e-06
-3.48629e-06
-6.11257e-06
-3.08077e-06
-6.36647e-06
-2.63029e-06
-6.4687e-06
-2.14688e-06
-6.38942e-06
-1.64886e-06
-6.09954e-06
-1.16119e-06
-5.57333e-06
-7.1511e-07
-4.7916e-06
-3.46861e-07
-3.74469e-06
-9.55363e-08
-2.43525e-06
-8.81527e-07
-8.7534e-08
9.1205e-07
-3.15637e-07
2.48867e-06
-6.46611e-07
3.79347e-06
-1.04366e-06
4.82078e-06
-1.47403e-06
5.58026e-06
-1.91076e-06
6.09164e-06
-2.33328e-06
6.381e-06
-2.72727e-06
6.47739e-06
-3.08391e-06
6.41023e-06
-3.39893e-06
6.20733e-06
-3.6715e-06
5.8938e-06
-3.90327e-06
5.49146e-06
-4.09747e-06
5.01868e-06
-4.25822e-06
4.49052e-06
-4.38995e-06
3.91903e-06
-4.49699e-06
3.31364e-06
-4.58323e-06
2.6816e-06
-4.65187e-06
2.0284e-06
-4.70527e-06
1.35818e-06
-4.74482e-06
6.74192e-07
-4.77082e-06
-2.08407e-08
-4.78242e-06
-7.24288e-07
-4.77756e-06
-1.43318e-06
-4.75298e-06
-2.14378e-06
-4.70426e-06
-2.85101e-06
-4.62589e-06
-3.548e-06
-4.51157e-06
-4.2254e-06
-4.35451e-06
-4.87083e-06
-4.14805e-06
-5.46822e-06
-3.88638e-06
-5.9973e-06
-3.56568e-06
-6.43327e-06
-3.18536e-06
-6.74679e-06
-2.74957e-06
-6.90449e-06
-2.26874e-06
-6.87025e-06
-1.76093e-06
-6.60735e-06
-1.25261e-06
-6.08164e-06
-7.7865e-07
-5.26556e-06
-3.80946e-07
-4.1424e-06
-1.05837e-07
-2.71036e-06
-9.87363e-07
-9.65086e-08
1.00856e-06
-3.4495e-07
2.73711e-06
-7.00046e-07
4.14857e-06
-1.11814e-06
5.23888e-06
-1.56143e-06
6.02355e-06
-2.00001e-06
6.53023e-06
-2.41237e-06
6.79335e-06
-2.78475e-06
6.84978e-06
-3.11002e-06
6.73549e-06
-3.38613e-06
6.48344e-06
-3.61477e-06
6.12244e-06
-3.80005e-06
5.67674e-06
-3.9475e-06
5.16613e-06
-4.06324e-06
4.60627e-06
-4.15344e-06
4.00923e-06
-4.22384e-06
3.38404e-06
-4.27949e-06
2.73725e-06
-4.32452e-06
2.07343e-06
-4.36201e-06
1.39568e-06
-4.3939e-06
7.06074e-07
-4.42083e-06
6.09302e-09
-4.44215e-06
-7.02966e-07
-4.4558e-06
-1.41954e-06
-4.45827e-06
-2.14131e-06
-4.4446e-06
-2.86469e-06
-4.4084e-06
-3.58419e-06
-4.34204e-06
-4.29176e-06
-4.23692e-06
-4.97595e-06
-4.08398e-06
-5.62116e-06
-3.87453e-06
-6.20675e-06
-3.60138e-06
-6.70642e-06
-3.26038e-06
-7.08779e-06
-2.8523e-06
-7.31257e-06
-2.38492e-06
-7.33764e-06
-1.87507e-06
-7.1172e-06
-1.35021e-06
-6.6065e-06
-8.48897e-07
-5.76687e-06
-4.19649e-07
-4.57165e-06
-1.17791e-07
-3.01221e-06
-1.10515e-06
-1.07556e-07
1.11611e-06
-3.80203e-07
3.00976e-06
-7.62496e-07
4.53086e-06
-1.20196e-06
5.67834e-06
-1.65477e-06
6.47636e-06
-2.08805e-06
6.9635e-06
-2.47987e-06
7.18517e-06
-2.81799e-06
7.1879e-06
-3.09789e-06
7.0154e-06
-3.32071e-06
6.70626e-06
-3.49132e-06
6.29305e-06
-3.61683e-06
5.80226e-06
-3.7054e-06
5.2547e-06
-3.76536e-06
4.66623e-06
-3.80466e-06
4.04852e-06
-3.83046e-06
3.40984e-06
-3.84893e-06
2.75572e-06
-3.86509e-06
2.08958e-06
-3.88269e-06
1.41327e-06
-3.90416e-06
7.27553e-07
-3.93058e-06
3.25061e-08
-3.96151e-06
-6.72028e-07
-3.99502e-06
-1.38603e-06
-4.02751e-06
-2.10882e-06
-4.05365e-06
-2.83854e-06
-4.06638e-06
-3.57146e-06
-4.05691e-06
-4.30124e-06
-4.01488e-06
-5.01798e-06
-3.92883e-06
-5.70721e-06
-3.7869e-06
-6.34868e-06
-3.578e-06
-6.91532e-06
-3.29353e-06
-7.37225e-06
-2.92968e-06
-7.67642e-06
-2.49015e-06
-7.77717e-06
-1.98918e-06
-7.61818e-06
-1.45415e-06
-7.14153e-06
-9.27124e-07
-6.2939e-06
-4.64191e-07
-5.03458e-06
-1.31911e-07
-3.34449e-06
-1.23707e-06
-1.21518e-07
1.23763e-06
-4.23526e-07
3.31177e-06
-8.36659e-07
4.94399e-06
-1.29705e-06
6.13873e-06
-1.75388e-06
6.93319e-06
-2.17156e-06
7.38118e-06
-2.52887e-06
7.54248e-06
-2.81645e-06
7.47548e-06
-3.03376e-06
7.2327e-06
-3.18617e-06
6.85867e-06
-3.28259e-06
6.38947e-06
-3.33362e-06
5.85329e-06
-3.3503e-06
5.27138e-06
-3.34324e-06
4.65916e-06
-3.32212e-06
4.0274e-06
-3.29542e-06
3.38315e-06
-3.27029e-06
2.73058e-06
-3.25245e-06
2.07174e-06
-3.24623e-06
1.40705e-06
-3.25452e-06
7.35844e-07
-3.27875e-06
5.67378e-08
-3.31882e-06
-6.31953e-07
-3.37302e-06
-1.33184e-06
-3.43785e-06
-2.04399e-06
-3.50791e-06
-2.76847e-06
-3.57575e-06
-3.50362e-06
-3.63173e-06
-4.24526e-06
-3.66404e-06
-4.98567e-06
-3.65894e-06
-5.71231e-06
-3.60131e-06
-6.40631e-06
-3.47577e-06
-7.04087e-06
-3.2684e-06
-7.57962e-06
-2.96943e-06
-7.97539e-06
-2.57669e-06
-8.16991e-06
-2.09977e-06
-8.09509e-06
-1.56427e-06
-7.67703e-06
-1.01494e-06
-6.84323e-06
-5.16287e-07
-5.53323e-06
-1.48962e-07
-3.71182e-06
-1.38603e-06
-1.39654e-07
1.37729e-06
-4.77887e-07
3.65e-06
-9.25904e-07
5.39201e-06
-1.40515e-06
6.61798e-06
-1.85703e-06
7.38506e-06
-2.24428e-06
7.76844e-06
-2.54827e-06
7.84647e-06
-2.76454e-06
7.69175e-06
-2.89827e-06
7.36643e-06
-2.96037e-06
6.92077e-06
-2.96459e-06
6.39369e-06
-2.92543e-06
5.81413e-06
-2.8569e-06
5.20284e-06
-2.77177e-06
4.57403e-06
-2.68123e-06
3.93687e-06
-2.59481e-06
3.29672e-06
-2.52031e-06
2.65609e-06
-2.46396e-06
2.01539e-06
-2.43043e-06
1.37353e-06
-2.42294e-06
7.28353e-07
-2.44324e-06
7.70367e-08
-2.49158e-06
-5.83613e-07
-2.5666e-06
-1.25681e-06
-2.66517e-06
-1.94542e-06
-2.78215e-06
-2.6515e-06
-2.9101e-06
-3.37567e-06
-3.03904e-06
-4.11632e-06
-3.15621e-06
-4.8685e-06
-3.24602e-06
-5.6225e-06
-3.29034e-06
-6.36199e-06
-3.26931e-06
-7.0619e-06
-3.16302e-06
-7.68591e-06
-2.9543e-06
-8.18412e-06
-2.63289e-06
-8.49132e-06
-2.20098e-06
-8.527e-06
-1.67957e-06
-8.19844e-06
-1.11426e-06
-7.40854e-06
-5.78375e-07
-6.06912e-06
-1.70108e-07
-4.12009e-06
-1.55614e-06
-1.63904e-07
1.54119e-06
-5.47436e-07
4.03353e-06
-1.03421e-06
5.87879e-06
-1.52701e-06
7.11079e-06
-1.95944e-06
7.81749e-06
-2.29487e-06
8.10387e-06
-2.52031e-06
8.07191e-06