/*--------------------------------*- C++ -*----------------------------------*\
| =========                 |                                                 |
| \\      /  F ield         | OpenFOAM: The Open Source CFD Toolbox           |
|  \\    /   O peration     | Version:  2.4.0                                 |
|   \\  /    A nd           | Web:      www.OpenFOAM.org                      |
|    \\/     M anipulation  |                                                 |
\*---------------------------------------------------------------------------*/
FoamFile
{
    version     2.0;
    format      ascii;
    class       volVectorField;
    location    "0.8";
    object      U;
}
// * * * * * * * * * * * * * * * * * * * * * * * * * * * * * * * * * * * * * //

dimensions      [0 1 -1 0 0 0 0];

internalField   nonuniform List<vector> 
1915
(
(1.50365e-40 -2.75992e-38 0)
(2.71235e-39 -4.80342e-39 0)
(1.30929e-39 -2.19301e-37 0)
(2.51137e-38 -3.82417e-38 0)
(8.86663e-39 -1.59074e-36 0)
(1.88585e-37 -2.77107e-37 0)
(5.4933e-38 -1.10251e-35 0)
(1.34364e-36 -1.9165e-36 0)
(3.06069e-37 -7.17859e-35 0)
(9.1306e-36 -1.24776e-35 0)
(1.42145e-36 -4.47497e-34 0)
(5.79067e-35 -7.75155e-35 0)
(4.99905e-36 -2.54797e-33 0)
(3.48541e-34 -4.42502e-34 0)
(4.36848e-36 -1.41654e-32 0)
(1.87131e-33 -2.43224e-33 0)
(-7.12761e-35 -6.62954e-32 0)
(9.51581e-33 -1.15106e-32 0)
(-5.75027e-34 -3.40143e-31 0)
(3.59172e-32 -5.57526e-32 0)
(-9.35368e-36 -3.04449e-36 0)
(-8.23219e-35 -2.03733e-35 0)
(-4.11444e-34 -1.42338e-34 0)
(-4.01733e-33 -1.0717e-34 0)
(-3.67985e-33 2.73655e-34 0)
(3.67985e-33 2.73655e-34 0)
(4.01733e-33 -1.07169e-34 0)
(4.11452e-34 -1.42336e-34 0)
(8.24421e-35 -2.0378e-35 0)
(9.69771e-36 -3.32375e-36 0)
(1.36225e-36 -3.94678e-37 0)
(1.50911e-37 -4.87458e-38 0)
(-1.65991e-42 -1.0221e-38 0)
(-1.50929e-37 -4.87507e-38 0)
(-1.36244e-36 -3.9473e-37 0)
(-9.69957e-36 -3.32429e-36 0)
(-8.24601e-35 -2.03832e-35 0)
(-4.11606e-34 -1.42385e-34 0)
(-4.01871e-33 -1.07569e-34 0)
(-3.6897e-33 2.70283e-34 0)
(3.59603e-33 2.52878e-34 0)
(3.59603e-33 -2.52878e-34 0)
(-3.6897e-33 -2.70283e-34 0)
(-4.01871e-33 1.07569e-34 0)
(-4.11606e-34 1.42385e-34 0)
(-8.24603e-35 2.03831e-35 0)
(-9.70144e-36 3.32374e-36 0)
(-1.38062e-36 3.89521e-37 0)
(-3.0718e-37 -4.84762e-40 0)
(-1.39642e-36 -3.94136e-37 0)
(-9.83616e-36 -3.36679e-36 0)
(-8.36681e-35 -2.0729e-35 0)
(-4.19923e-34 -1.45308e-34 0)
(-4.0913e-33 -1.24575e-34 0)
(-4.01733e-33 1.48725e-34 0)
(-1.61837e-39 2.91416e-34 0)
(4.01732e-33 1.48721e-34 0)
(4.09117e-33 -1.24611e-34 0)
(4.18518e-34 -1.45386e-34 0)
(7.68862e-35 -1.85665e-35 0)
(-3.60999e-36 1.37763e-36 0)
(-2.81606e-35 1.0868e-35 0)
(-1.36387e-34 7.58067e-35 0)
(-8.48106e-34 5.68885e-35 0)
(-7.36579e-34 -1.45471e-34 0)
(7.3658e-34 -1.45471e-34 0)
(8.48106e-34 5.68884e-35 0)
(1.36391e-34 7.58062e-35 0)
(2.82186e-35 1.08811e-35 0)
(3.85512e-36 1.67958e-36 0)
(5.60701e-37 1.91028e-37 0)
(6.64114e-38 2.23484e-38 0)
(-8.27128e-43 4.49e-39 0)
(-6.64203e-38 2.23503e-38 0)
(-5.60792e-37 1.9105e-37 0)
(-3.85599e-36 1.67981e-36 0)
(-2.82267e-35 1.08833e-35 0)
(-1.36459e-34 7.58286e-35 0)
(-8.48675e-34 5.70817e-35 0)
(-7.40503e-34 -1.43769e-34 0)
(7.07792e-34 -1.34397e-34 0)
(7.07792e-34 1.34397e-34 0)
(-7.40503e-34 1.43769e-34 0)
(-8.48675e-34 -5.70817e-35 0)
(-1.36459e-34 -7.58286e-35 0)
(-2.82268e-35 -1.08833e-35 0)
(-3.85687e-36 -1.67958e-36 0)
(-5.69029e-37 -1.88764e-37 0)
(-1.35339e-37 2.05152e-40 0)
(-5.7614e-37 1.908e-37 0)
(-3.91598e-36 1.69944e-36 0)
(-2.87195e-35 1.1052e-35 0)
(-1.39746e-34 7.73149e-35 0)
(-8.72971e-34 6.62608e-35 0)
(-8.48107e-34 -7.90371e-35 0)
(-8.2523e-40 -1.55016e-34 0)
(8.48098e-34 -7.90356e-35 0)
(8.72906e-34 6.62703e-35 0)
(1.39129e-34 7.72238e-35 0)
(2.55241e-35 8.2528e-36 0)
(-1.07168e-36 5.63344e-37 0)
(-7.05068e-36 4.19611e-36 0)
(-2.63182e-35 2.32719e-35 0)
(-1.27595e-34 1.60245e-35 0)
(-1.07396e-34 -4.42875e-35 0)
(1.07396e-34 -4.42875e-35 0)
(1.27595e-34 1.60244e-35 0)
(2.63188e-35 2.32716e-35 0)
(7.06129e-36 4.20088e-36 0)
(1.09971e-36 6.92848e-37 0)
(1.77607e-37 8.60951e-38 0)
(2.24832e-38 1.05051e-38 0)
(-3.31102e-43 2.21593e-39 0)
(-2.24867e-38 1.05062e-38 0)
(-1.77642e-37 8.61062e-38 0)
(-1.10004e-36 6.92964e-37 0)
(-7.0642e-36 4.202e-36 0)
(-2.63419e-35 2.32821e-35 0)
(-1.27776e-34 1.61117e-35 0)
(-1.08518e-34 -4.35841e-35 0)
(1.00154e-34 -3.99994e-35 0)
(1.00154e-34 3.99994e-35 0)
(-1.08518e-34 4.35841e-35 0)
(-1.27776e-34 -1.61117e-35 0)
(-2.63419e-35 -2.32821e-35 0)
(-7.06424e-36 -4.20199e-36 0)
(-1.10036e-36 -6.92847e-37 0)
(-1.80589e-37 -8.49771e-38 0)
(-4.59001e-38 1.0396e-40 0)
(-1.83115e-37 8.59789e-38 0)
(-1.12025e-36 7.02119e-37 0)
(-7.21875e-36 4.27756e-36 0)
(-2.72611e-35 2.38878e-35 0)
(-1.33714e-34 1.96092e-35 0)
(-1.27595e-34 -2.46006e-35 0)
(-1.86715e-40 -4.79498e-35 0)
(1.27594e-34 -2.45998e-35 0)
(1.33703e-34 1.96144e-35 0)
(2.7157e-35 2.38579e-35 0)
(6.66528e-36 3.18783e-36 0)
(-2.26917e-37 1.84251e-37 0)
(-1.28535e-36 1.27708e-36 0)
(-3.70875e-36 6.551e-36 0)
(-1.47292e-35 4.36851e-36 0)
(-1.21158e-35 -1.24615e-35 0)
(1.21158e-35 -1.24615e-35 0)
(1.47292e-35 4.36851e-36 0)
(3.70873e-36 6.55098e-36 0)
(1.28637e-36 1.27931e-36 0)
(2.25927e-37 2.28295e-37 0)
(3.96413e-38 3.01426e-38 0)
(5.31002e-39 3.88094e-39 0)
(-8.93325e-44 8.52642e-40 0)
(-5.31095e-39 3.88138e-39 0)
(-3.96504e-38 3.01471e-38 0)
(-2.2601e-37 2.28341e-37 0)
(-1.28709e-36 1.27974e-36 0)
(-3.7142e-36 6.55486e-36 0)
(-1.47695e-35 4.39907e-36 0)
(-1.23472e-35 -1.22294e-35 0)
(1.0789e-35 -1.11517e-35 0)
(1.0789e-35 1.11517e-35 0)
(-1.23472e-35 1.22294e-35 0)
(-1.47695e-35 -4.39907e-36 0)
(-3.7142e-36 -6.55486e-36 0)
(-1.2871e-36 -1.27973e-36 0)
(-2.26093e-37 -2.28294e-37 0)
(-4.03767e-38 -2.97122e-38 0)
(-1.08572e-38 4.12689e-41 0)
(-4.09953e-38 3.00963e-38 0)
(-2.30765e-37 2.31699e-37 0)
(-1.32128e-36 1.30599e-36 0)
(-3.89976e-36 6.75259e-36 0)
(-1.58245e-35 5.4462e-36 0)
(-1.47292e-35 -6.98825e-36 0)
(-2.75234e-41 -1.35663e-35 0)
(1.4729e-35 -6.98806e-36 0)
(1.58235e-35 5.44703e-36 0)
(3.89128e-36 6.73819e-36 0)
(1.26388e-36 9.60169e-37 0)
(-4.36611e-38 4.17585e-38 0)
(-2.13863e-37 2.76672e-37 0)
(-4.32332e-37 1.32501e-36 0)
(-1.26601e-36 8.55702e-37 0)
(-1.01266e-36 -2.51866e-36 0)
(1.01266e-36 -2.51866e-36 0)
(1.26601e-36 8.55702e-37 0)
(4.32289e-37 1.32503e-36 0)
(2.13753e-37 2.77312e-37 0)
(4.17514e-38 5.22848e-38 0)
(7.92542e-39 7.25007e-39 0)
(1.11244e-39 9.69685e-40 0)
(-2.10139e-44 2.1985e-40 0)
(-1.11265e-39 9.69804e-40 0)
(-7.9275e-39 7.25131e-39 0)
(-4.17698e-38 5.22971e-38 0)
(-2.1391e-37 2.77423e-37 0)
(-4.33438e-37 1.326e-36 0)
(-1.27409e-36 8.63062e-37 0)
(-1.05556e-36 -2.4654e-36 0)
(7.90819e-37 -2.23398e-36 0)
(7.90819e-37 2.23398e-36 0)
(-1.05556e-36 2.4654e-36 0)
(-1.27409e-36 -8.63062e-37 0)
(-4.33439e-37 -1.326e-36 0)
(-2.13912e-37 -2.77422e-37 0)
(-4.17884e-38 -5.22847e-38 0)
(-8.08558e-39 -7.13905e-39 0)
(-2.27781e-39 1.08774e-41 0)
(-8.21951e-39 7.23784e-39 0)
(-4.27626e-38 5.31312e-38 0)
(-2.2069e-37 2.83701e-37 0)
(-4.67107e-37 1.37092e-36 0)
(-1.44495e-36 1.08712e-36 0)
(-1.26601e-36 -1.42505e-36 0)
(-1.49183e-42 -2.75656e-36 0)
(1.26601e-36 -1.42502e-36 0)
(1.44511e-36 1.08714e-36 0)
(4.68361e-37 1.36671e-36 0)
(2.22026e-37 2.05207e-37 0)
(-7.46896e-39 8.47011e-39 0)
(-3.25003e-38 5.38503e-38 0)
(-4.43518e-38 2.47668e-37 0)
(-6.86408e-38 1.56897e-37 0)
(-5.10364e-38 -4.71108e-37 0)
(5.10364e-38 -4.71108e-37 0)
(6.86404e-38 1.56899e-37 0)
(4.43418e-38 2.47682e-37 0)
(3.24373e-38 5.40493e-38 0)
(6.91356e-39 1.06989e-38 0)
(1.39461e-39 1.54171e-39 0)
(2.03289e-40 2.13238e-40 0)
(-4.22717e-45 4.96042e-41 0)
(-2.03332e-40 2.13266e-40 0)
(-1.39501e-39 1.542e-39 0)
(-6.9171e-39 1.07017e-38 0)
(-3.24667e-38 5.40744e-38 0)
(-4.45521e-38 2.47895e-37 0)
(-7.00648e-38 1.58465e-37 0)
(-5.81603e-38 -4.60196e-37 0)
(1.71747e-38 -4.15492e-37 0)
(1.71747e-38 4.15492e-37 0)
(-5.81603e-38 4.60196e-37 0)
(-7.00648e-38 -1.58465e-37 0)
(-4.45522e-38 -2.47895e-37 0)
(-3.24671e-38 -5.40741e-38 0)
(-6.92069e-39 -1.06989e-38 0)
(-1.4248e-39 -1.51665e-39 0)
(-4.16765e-40 2.5017e-42 0)
(-1.44992e-39 1.53889e-39 0)
(-7.09801e-39 1.08842e-38 0)
(-3.36518e-38 5.54023e-38 0)
(-5.00413e-38 2.57027e-37 0)
(-9.53782e-38 2.01602e-37 0)
(-6.86404e-38 -2.6813e-37 0)
(4.05557e-43 -5.17187e-37 0)
(6.86466e-38 -2.6813e-37 0)
(9.54579e-38 2.01562e-37 0)
(5.0641e-38 2.55948e-37 0)
(3.54304e-38 3.9398e-38 0)
(-9.77962e-40 1.37891e-39 0)
(-4.76299e-39 8.95057e-39 0)
(-4.31124e-39 4.10227e-38 0)
(1.83828e-39 2.55508e-38 0)
(2.28363e-39 -7.81753e-38 0)
(-2.28278e-39 -7.81745e-38 0)
(-1.83349e-39 2.55587e-38 0)
(4.33888e-39 4.10773e-38 0)
(4.77496e-39 9.29618e-39 0)
(1.0841e-39 1.91249e-39 0)
(2.29106e-40 2.84574e-40 0)
(3.43755e-41 4.04367e-41 0)
(-7.73412e-46 9.61083e-42 0)
(-3.43833e-41 4.04424e-41 0)
(-2.29178e-40 2.84632e-40 0)
(-1.08473e-39 1.91305e-39 0)
(-4.78006e-39 9.30104e-39 0)
(-4.3745e-39 4.11177e-38 0)
(1.59922e-39 2.58481e-38 0)
(1.16314e-39 -7.62215e-38 0)
(-7.29211e-39 -6.85889e-38 0)
(-7.29211e-39 6.85889e-38 0)
(1.16314e-39 7.62215e-38 0)
(1.59922e-39 -2.58481e-38 0)
(-4.37451e-39 -4.11177e-38 0)
(-4.78014e-39 -9.30099e-39 0)
(-1.08536e-39 -1.91249e-39 0)
(-2.34342e-40 -2.79717e-40 0)
(-7.05472e-41 4.9236e-43 0)
(-2.38678e-40 2.84018e-40 0)
(-1.11525e-39 1.94752e-39 0)
(-4.97369e-39 9.54506e-39 0)
(-5.22434e-39 4.27408e-38 0)
(-2.05601e-39 3.31913e-38 0)
(1.83351e-39 -4.47298e-38 0)
(1.76977e-43 -8.60604e-38 0)
(-1.8315e-39 -4.47306e-38 0)
(2.0762e-39 3.31773e-38 0)
(5.37067e-39 4.25144e-38 0)
(5.45307e-39 6.685e-39 0)
(3.97299e-39 8.53197e-40 0)
(1.01095e-41 -9.30067e-40 0)
(-1.50272e-40 6.05117e-39 0)
(1.24028e-39 3.89972e-39 0)
(1.09103e-39 -1.22627e-38 0)
(-1.08467e-39 -1.22578e-38 0)
(-1.19911e-39 3.9517e-39 0)
(4.29353e-40 6.43572e-39 0)
(6.72797e-40 1.49578e-39 0)
(1.5976e-40 3.17604e-40 0)
(3.49251e-41 4.84727e-41 0)
(5.36115e-42 7.04246e-42 0)
(-1.28757e-46 1.70323e-42 0)
(-5.36243e-42 7.04351e-42 0)
(-3.4937e-41 4.84832e-41 0)
(-1.59861e-40 3.17704e-40 0)
(-6.73608e-40 1.49665e-39 0)
(-4.34908e-40 6.44277e-39 0)
(1.16343e-39 4.00107e-39 0)
(9.1998e-40 -1.19326e-38 0)
(-1.79385e-39 -1.07121e-38 0)
(-1.79385e-39 1.07121e-38 0)
(9.1998e-40 1.19326e-38 0)
(1.16343e-39 -4.00107e-39 0)
(-4.3491e-40 -6.44277e-39 0)
(-6.7362e-40 -1.49664e-39 0)
(-1.59963e-40 -3.17603e-40 0)
(-3.57584e-41 -4.76117e-41 0)
(-1.10121e-41 8.84005e-44 0)
(-3.6446e-41 4.83727e-41 0)
(-1.64612e-40 3.23685e-40 0)
(-7.02994e-40 1.53806e-39 0)
(-5.58923e-40 6.71104e-39 0)
(6.55957e-40 5.17221e-39 0)
(1.19918e-39 -7.04196e-39 0)
(4.21797e-44 -1.35208e-38 0)
(-1.19875e-39 -7.04223e-39 0)
(-6.52035e-40 5.16878e-39 0)
(5.8638e-40 6.66837e-39 0)
(7.95248e-40 1.06248e-39 0)
(7.49722e-38 -1.84228e-38 0)
(8.78351e-39 -1.59349e-38 0)
(2.44036e-39 -1.41412e-39 0)
(5.47732e-40 2.93966e-40 0)
(2.40794e-40 -1.82136e-39 0)
(-1.97184e-40 -1.7967e-39 0)
(-2.29389e-40 5.70974e-40 0)
(4.52516e-41 9.41464e-40 0)
(9.18915e-41 2.23922e-40 0)
(2.24919e-41 4.87585e-41 0)
(5.04145e-42 7.5995e-42 0)
(7.87715e-43 1.12424e-42 0)
(-1.98643e-47 2.75899e-43 0)
(-7.87911e-43 1.12442e-42 0)
(-5.04324e-42 7.60126e-42 0)
(-2.25069e-41 4.8775e-41 0)
(-9.20094e-41 2.24063e-40 0)
(-4.60337e-41 9.42606e-40 0)
(2.24625e-40 5.78925e-40 0)
(1.77952e-40 -1.74433e-39 0)
(-2.98314e-40 -1.56255e-39 0)
(-2.98314e-40 1.56255e-39 0)
(1.77952e-40 1.74433e-39 0)
(2.24624e-40 -5.78925e-40 0)
(-4.60339e-41 -9.42606e-40 0)
(-9.20113e-41 -2.24061e-40 0)
(-2.25224e-41 -4.87585e-41 0)
(-5.16589e-42 -7.46001e-42 0)
(-1.6192e-42 1.44756e-44 0)
(-5.26826e-42 7.58311e-42 0)
(-2.32039e-41 4.9727e-41 0)
(-9.62364e-41 2.30535e-40 0)
(-6.33615e-41 9.83627e-40 0)
(1.56046e-40 7.52965e-40 0)
(2.2979e-40 -1.03451e-39 0)
(8.10519e-45 -1.98273e-39 0)
(-2.2971e-40 -1.03457e-39 0)
(-1.55381e-40 7.52292e-40 0)
(6.78786e-41 9.76413e-40 0)
(1.11562e-40 1.57394e-40 0)
(1.11236e-36 2.04391e-37 0)
(1.38491e-37 -9.60725e-38 0)
(1.962e-38 -1.34439e-38 0)
(2.12556e-39 -1.28655e-39 0)
(2.48768e-40 -3.74169e-40 0)
(-8.8304e-42 -2.60569e-40 0)
(-3.22131e-41 7.79355e-41 0)
(5.19675e-42 1.31089e-40 0)
(1.20385e-41 3.17651e-41 0)
(3.01072e-42 7.05233e-42 0)
(6.87574e-43 1.11734e-42 0)
(1.09001e-43 1.67614e-43 0)
(-2.48831e-48 4.16062e-44 0)
(-1.09024e-43 1.67643e-43 0)
(-6.87755e-43 1.11763e-42 0)
(-3.01185e-42 7.05519e-42 0)
(-1.20423e-41 3.17912e-41 0)
(-5.14973e-42 1.31323e-40 0)
(3.33853e-41 7.99283e-41 0)
(2.63964e-41 -2.42854e-40 0)
(-4.22495e-41 -2.17166e-40 0)
(-4.22495e-41 2.17166e-40 0)
(2.63964e-41 2.42854e-40 0)
(3.33853e-41 -7.99283e-41 0)
(-5.14976e-42 -1.31323e-40 0)
(-1.20426e-41 -3.17909e-41 0)
(-3.01404e-42 -7.05267e-42 0)
(-7.04951e-43 -1.09632e-42 0)
(-2.2419e-43 2.20131e-45 0)
(-7.1927e-43 1.11487e-42 0)
(-3.10818e-42 7.19677e-42 0)
(-1.2617e-41 3.27404e-41 0)
(-7.45476e-42 1.37238e-40 0)
(2.4483e-41 1.04478e-40 0)
(3.40902e-41 -1.44607e-40 0)
(1.35087e-45 -2.76753e-40 0)
(-3.40775e-41 -1.44618e-40 0)
(-2.43818e-41 1.04362e-40 0)
(8.12387e-42 1.36111e-40 0)
(1.48879e-41 2.21453e-41 0)
(1.20702e-33 -1.18885e-30 0)
(2.00101e-31 -2.0808e-31 0)
(2.10583e-32 -1.18066e-29 0)
(-3.69048e-32 -1.39953e-30 0)
(2.03968e-31 1.53413e-30 0)
(-2.39193e-31 1.93138e-31 0)
(2.10711e-32 1.35223e-29 0)
(1.33017e-32 1.62563e-30 0)
(1.4558e-33 1.4497e-30 0)
(2.22688e-31 2.58805e-31 0)
(8.15805e-35 9.14476e-31 0)
(-3.5378e-32 1.73813e-31 0)
(6.67797e-35 3.16075e-30 0)
(-4.60712e-31 5.71923e-31 0)
(1.10179e-34 2.54357e-29 0)
(-7.81567e-31 3.34508e-30 0)
(3.33488e-36 4.69376e-29 0)
(-2.37019e-32 5.90586e-30 0)
(-1.09839e-34 2.67911e-29 0)
(7.78763e-31 3.50599e-30 0)
(4.89449e-31 5.88133e-31 0)
(7.25651e-32 1.21063e-31 0)
(1.09726e-32 1.65553e-32 0)
(1.25289e-33 2.42269e-33 0)
(1.42903e-34 7.14074e-34 0)
(7.606e-36 3.80805e-33 0)
(-6.50004e-35 3.39984e-32 0)
(-6.48849e-34 2.39803e-31 0)
(-4.70047e-33 1.99078e-30 0)
(-3.38769e-32 9.56959e-30 0)
(-2.97652e-32 8.50703e-29 0)
(2.97655e-32 8.50703e-29 0)
(3.38696e-32 9.56956e-30 0)
(4.43597e-33 1.99053e-30 0)
(-4.4909e-33 2.38268e-31 0)
(-7.29583e-32 2.33512e-32 0)
(-7.07508e-31 3.77545e-33 0)
(-7.30241e-32 1.10788e-32 0)
(-5.13975e-33 1.57862e-33 0)
(-2.63907e-34 2.55764e-34 0)
(-2.92466e-36 3.24428e-35 0)
(3.28747e-35 2.03711e-35 0)
(1.61105e-34 8.33793e-35 0)
(3.26247e-32 -2.28729e-32 0)
(6.29673e-33 -2.45535e-33 0)
(8.69009e-34 -2.60567e-34 0)
(1.2118e-34 -2.6704e-35 0)
(-7.8672e-33 -1.27926e-31 0)
(-1.39899e-33 -9.20888e-33 0)
(-1.92557e-34 -4.81601e-34 0)
(-2.31166e-35 -1.33131e-35 0)
(-5.30034e-32 1.83583e-32 0)
(-9.20305e-33 1.35477e-33 0)
(-1.24652e-33 7.01806e-35 0)
(-1.4843e-34 1.47734e-36 0)
(1.7943e-33 1.50658e-31 0)
(5.02758e-34 1.09553e-32 0)
(8.89858e-35 5.80072e-34 0)
(1.73358e-35 1.64062e-35 0)
(4.12207e-32 3.03861e-32 0)
(8.02143e-33 2.7656e-33 0)
(1.14589e-33 2.19314e-34 0)
(1.60859e-34 1.66732e-35 0)
(-8.03532e-33 2.95758e-32 0)
(-1.71942e-33 3.90527e-33 0)
(-2.68906e-34 5.05628e-34 0)
(-3.98227e-35 5.97367e-35 0)
(-9.00214e-32 7.52956e-32 0)
(-1.78504e-32 7.88836e-33 0)
(-2.60557e-33 7.87934e-34 0)
(-3.69005e-34 7.68147e-35 0)
(-1.48147e-31 3.30764e-31 0)
(-2.90512e-32 2.57574e-32 0)
(-4.188e-33 1.5455e-33 0)
(-5.89063e-34 6.64999e-35 0)
(-4.43223e-33 5.6051e-31 0)
(-8.64495e-34 4.14911e-32 0)
(-1.23864e-34 2.18542e-33 0)
(-1.73594e-35 5.3859e-35 0)
(1.47541e-31 3.45065e-31 0)
(2.89307e-32 2.67157e-32 0)
(4.17023e-33 1.58043e-33 0)
(5.86571e-34 6.49706e-35 0)
(9.56226e-32 7.64213e-32 0)
(1.89758e-32 7.87902e-33 0)
(2.77142e-33 7.68944e-34 0)
(3.92767e-34 7.32842e-35 0)
(1.62791e-32 2.07547e-32 0)
(3.42511e-33 2.76114e-33 0)
(5.294e-34 3.5927e-34 0)
(7.76845e-35 4.25911e-35 0)
(2.57238e-33 3.21803e-33 0)
(5.7711e-34 4.77834e-34 0)
(9.33706e-35 6.77823e-35 0)
(1.42677e-35 8.56017e-36 0)
(3.0535e-34 5.211e-34 0)
(7.16566e-35 8.40405e-35 0)
(1.19629e-35 1.27643e-35 0)
(1.87878e-36 1.69946e-36 0)
(-1.0412e-35 1.74651e-34 0)
(-4.06975e-36 3.71525e-35 0)
(-1.71049e-36 6.25559e-36 0)
(-3.31486e-37 9.63953e-37 0)
(-4.62797e-34 9.48977e-34 0)
(-1.24622e-34 2.15867e-34 0)
(-3.03723e-35 3.60628e-35 0)
(-5.28686e-36 5.61529e-36 0)
(-4.01655e-33 8.03576e-33 0)
(-1.05222e-33 1.72608e-33 0)
(-2.45468e-34 2.74128e-34 0)
(-4.14178e-35 4.10501e-35 0)
(-3.52444e-32 5.45255e-32 0)
(-8.71012e-33 1.05784e-32 0)
(-1.93658e-33 1.555e-33 0)
(-3.13379e-34 2.17399e-34 0)
(-2.24836e-31 4.03238e-31 0)
(-5.30315e-32 6.90293e-32 0)
(-1.10284e-32 9.0461e-33 0)
(-1.70161e-33 1.15584e-33 0)
(-1.53182e-30 1.8292e-30 0)
(-3.09883e-31 2.2919e-31 0)
(-6.08002e-32 2.1825e-32 0)
(-8.85034e-33 1.86062e-33 0)
(-1.33864e-30 1.14694e-29 0)
(-2.64623e-31 1.12386e-30 0)
(-5.14906e-32 8.36024e-32 0)
(-7.42549e-33 4.47192e-33 0)
(1.33864e-30 1.14695e-29 0)
(2.64623e-31 1.12386e-30 0)
(5.149e-32 8.36035e-32 0)
(7.42534e-33 4.47215e-33 0)
(1.53182e-30 1.82923e-30 0)
(3.09876e-31 2.29227e-31 0)
(6.07948e-32 2.18345e-32 0)
(8.84896e-33 1.86272e-33 0)
(2.24576e-31 4.03503e-31 0)
(5.29302e-32 6.93529e-32 0)
(1.09766e-32 9.12449e-33 0)
(1.68974e-33 1.17239e-33 0)
(3.01841e-32 5.61456e-32 0)
(7.27613e-33 1.25419e-32 0)
(1.41925e-33 2.00666e-33 0)
(2.09498e-34 3.06516e-34 0)
(-6.80043e-32 1.92749e-32 0)
(-1.43314e-32 1.49713e-32 0)
(-3.60104e-33 2.89401e-33 0)
(-6.2056e-34 5.30649e-34 0)
(-6.99762e-31 9.41244e-34 0)
(-1.05672e-31 2.1457e-34 0)
(-2.47071e-32 3.6071e-35 0)
(-3.80966e-33 6.5091e-36 0)
(-7.19743e-32 -1.11287e-32 0)
(-1.53704e-32 -1.32184e-32 0)
(-3.84222e-33 -2.61317e-33 0)
(-6.57637e-34 -4.79807e-34 0)
(-5.05525e-33 -1.60821e-33 0)
(-1.43022e-33 -1.9573e-33 0)
(-5.06666e-34 -4.31408e-34 0)
(-6.50175e-35 -3.15976e-36 0)
(-2.55728e-34 -2.59612e-34 0)
(-7.80552e-35 -2.97621e-34 0)
(4.94712e-35 7.66069e-35 0)
(3.95827e-34 6.84872e-34 0)
(2.30407e-35 -1.10078e-36 0)
(1.77885e-34 1.5556e-34 0)
(8.61635e-34 1.2036e-33 0)
(3.85507e-33 5.74712e-33 0)
(2.29869e-34 1.36634e-34 0)
(1.47962e-33 9.76792e-34 0)
(7.53889e-33 6.50338e-33 0)
(3.82068e-32 3.29716e-32 0)
(1.19792e-33 7.05839e-34 0)
(8.28611e-33 5.0944e-33 0)
(4.75666e-32 3.57358e-32 0)
(2.81069e-31 1.90825e-31 0)
(1.41993e-35 -2.28039e-36 0)
(1.53971e-36 -8.93348e-38 0)
(1.52822e-37 -3.65885e-39 0)
(1.47317e-38 -1.69832e-40 0)
(1.3373e-39 -3.70595e-41 0)
(1.1434e-40 -2.49055e-41 0)
(6.49578e-42 7.28179e-42 0)
(1.21204e-42 1.24125e-41 0)
(1.16283e-42 3.06186e-42 0)
(2.84529e-43 6.9741e-43 0)
(6.51258e-44 1.12678e-43 0)
(1.04044e-44 1.72389e-44 0)
(1.3895e-48 4.34561e-45 0)
(-1.03828e-44 1.72423e-44 0)
(-6.48088e-44 1.12713e-43 0)
(-2.80053e-43 6.97754e-43 0)
(-1.10251e-42 3.06501e-42 0)
(-4.27592e-43 1.24404e-41 0)
(3.24256e-42 7.5126e-42 0)
(2.55848e-42 -2.29986e-41 0)
(-4.01644e-42 -2.05357e-41 0)
(-4.01644e-42 2.05357e-41 0)
(2.55848e-42 2.29986e-41 0)
(3.24256e-42 -7.5126e-42 0)
(-4.27594e-43 -1.24404e-41 0)
(-1.10253e-42 -3.06498e-42 0)
(-2.80264e-43 -6.97487e-43 0)
(-6.64621e-44 -1.10486e-43 0)
(-2.13605e-44 2.32883e-46 0)
(-6.78364e-44 1.1242e-43 0)
(-2.89218e-43 7.12266e-43 0)
(-1.15654e-42 3.16039e-42 0)
(-6.41001e-43 1.30231e-41 0)
(2.43233e-42 9.86068e-42 0)
(3.30901e-42 -1.37531e-41 0)
(1.48432e-46 -2.6276e-41 0)
(-3.30766e-42 -1.37545e-41 0)
(-2.42176e-42 9.84731e-42 0)
(7.10612e-43 1.29043e-41 0)
(1.40029e-42 2.10533e-42 0)
(-2.20481e-36 9.13744e-37 0)
(-1.72802e-37 1.68573e-37 0)
(-1.04584e-38 1.71434e-38 0)
(-3.17129e-40 1.42527e-39 0)
(3.19796e-41 1.03594e-40 0)
(8.06459e-42 5.10577e-42 0)
(8.8611e-43 1.05388e-42 0)
(1.58351e-43 1.07766e-42 0)
(9.46649e-44 2.64022e-43 0)
(2.22798e-44 6.04589e-44 0)
(5.06649e-45 9.84759e-45 0)
(8.1371e-46 1.51573e-45 0)
(6.17999e-49 3.84252e-46 0)
(-8.05628e-46 1.51655e-45 0)
(-4.96727e-45 9.85425e-45 0)
(-2.11167e-44 6.04803e-44 0)
(-8.19816e-44 2.63371e-43 0)
(-3.03595e-44 1.05677e-42 0)
(2.45929e-43 6.34107e-43 0)
(1.93597e-43 -1.95254e-42 0)
(-3.02485e-43 -1.74129e-42 0)
(-3.02485e-43 1.74129e-42 0)
(1.93597e-43 1.95254e-42 0)
(2.45929e-43 -6.34107e-43 0)
(-3.03598e-44 -1.05677e-42 0)
(-8.19837e-44 -2.63368e-43 0)
(-2.11335e-44 -6.04566e-44 0)
(-5.09724e-45 -9.65727e-45 0)
(-1.65854e-45 2.06629e-47 0)
(-5.20501e-45 9.82819e-45 0)
(-2.1827e-44 6.17552e-44 0)
(-8.61124e-44 2.71701e-43 0)
(-4.63646e-44 1.10719e-42 0)
(1.86015e-43 8.3531e-43 0)
(2.51026e-43 -1.1705e-42 0)
(1.29977e-47 -2.23448e-42 0)
(-2.5091e-43 -1.17064e-42 0)
(-1.85145e-43 8.34026e-43 0)
(5.20239e-44 1.09633e-42 0)
(1.05775e-43 1.80166e-43 0)
(-1.44169e-35 -2.44115e-37 0)
(-1.2067e-36 -3.84559e-38 0)
(-8.9102e-38 -4.16782e-39 0)
(-5.38539e-39 -3.84772e-40 0)
(-2.24152e-40 -3.3751e-41 0)
(4.51669e-42 -2.91952e-42 0)
(2.25574e-42 -1.72797e-43 0)
(3.43847e-43 6.40864e-44 0)
(4.45086e-44 1.91797e-44 0)
(5.40435e-45 4.66567e-45 0)
(7.23268e-46 7.77339e-46 0)
(9.12925e-47 1.21416e-46 0)
(2.2619e-48 3.11144e-47 0)
(-6.2599e-47 1.2186e-46 0)
(-3.84258e-46 7.83811e-46 0)
(-1.62067e-45 4.75731e-45 0)
(-6.23248e-45 2.04464e-44 0)
(-2.25424e-45 8.10539e-44 0)
(1.88188e-44 4.83347e-44 0)
(1.47853e-44 -1.49697e-43 0)
(-2.30868e-44 -1.33345e-43 0)
(-2.30868e-44 1.33345e-43 0)
(1.47853e-44 1.49697e-43 0)
(1.88188e-44 -4.83347e-44 0)
(-2.25426e-45 -8.10538e-44 0)
(-6.23264e-45 -2.04462e-44 0)
(-1.622e-45 -4.75538e-45 0)
(-3.94459e-46 -7.67843e-46 0)
(-1.29258e-46 1.68547e-48 0)
(-4.02897e-46 7.81682e-46 0)
(-1.67598e-45 4.85956e-45 0)
(-6.55155e-45 2.11077e-44 0)
(-3.47932e-45 8.501e-44 0)
(1.42811e-44 6.38881e-44 0)
(1.92133e-44 -8.99952e-44 0)
(1.1038e-48 -1.7162e-43 0)
(-1.92036e-44 -9.00075e-44 0)
(-1.421e-44 6.37775e-44 0)
(3.93569e-45 8.41171e-44 0)
(8.15122e-45 1.38862e-44 0)
(2.4427e-36 -1.08881e-36 0)
(3.28716e-37 -1.98611e-37 0)
(3.82091e-38 -2.02696e-38 0)
(4.29943e-39 -1.69723e-39 0)
(4.41292e-40 -1.2849e-40 0)
(4.35964e-41 -8.94376e-42 0)
(4.03257e-42 -5.66379e-43 0)
(3.59665e-43 -2.65918e-44 0)
(3.08962e-44 -1.59547e-47 0)
(2.60729e-45 3.16367e-46 0)
(2.2334e-46 6.20642e-47 0)
(1.94454e-47 9.94672e-48 0)
(1.0852e-48 2.51105e-48 0)
(-4.54922e-48 9.62537e-48 0)
(-2.81034e-47 6.15932e-47 0)
(-1.17516e-46 3.71435e-46 0)
(-4.47663e-46 1.5864e-45 0)
(-1.59178e-46 6.23474e-45 0)
(1.35507e-45 3.69951e-45 0)
(1.06251e-45 -1.15098e-44 0)
(-1.66052e-45 -1.02427e-44 0)
(-1.66052e-45 1.02427e-44 0)
(1.06251e-45 1.15098e-44 0)
(1.35507e-45 -3.69951e-45 0)
(-1.59179e-46 -6.23473e-45 0)
(-4.47675e-46 -1.58638e-45 0)
(-1.17615e-46 -3.71281e-46 0)
(-2.8865e-47 -6.03264e-47 0)
(-9.53006e-48 1.34037e-49 0)
(-2.94904e-47 6.14234e-47 0)
(-1.2159e-46 3.79499e-46 0)
(-4.70964e-46 1.63832e-45 0)
(-2.47745e-46 6.5432e-45 0)
(1.03039e-45 4.90375e-45 0)
(1.38393e-45 -6.93263e-45 0)
(8.75926e-50 -1.32121e-44 0)
(-1.38318e-45 -6.93367e-45 0)
(-1.02496e-45 4.89452e-45 0)
(2.8206e-46 6.47086e-45 0)
(5.90988e-46 1.07382e-45 0)
(1.81081e-35 1.25177e-36 0)
(1.9388e-36 1.02373e-37 0)
(1.89117e-37 9.46015e-39 0)
(1.80563e-38 8.75072e-40 0)
(1.6174e-39 8.04113e-41 0)
(1.40874e-40 7.05391e-42 0)
(1.16839e-41 6.00639e-43 0)
(9.40949e-43 4.93569e-44 0)
(7.28244e-44 3.97603e-45 0)
(5.47967e-45 3.20747e-46 0)
(3.99334e-46 2.62101e-47 0)
(2.84035e-47 2.26209e-48 0)
(1.92365e-48 2.92122e-49 0)
(-2.05616e-49 7.23062e-49 0)
(-2.01117e-48 4.55424e-48 0)
(-8.40028e-48 2.72586e-47 0)
(-3.17714e-47 1.15498e-46 0)
(-1.11561e-47 4.49893e-46 0)
(9.62655e-47 2.65638e-46 0)
(7.53561e-47 -8.30219e-46 0)
(-1.17889e-46 -7.38133e-46 0)
(-1.17889e-46 7.38133e-46 0)
(7.53561e-47 8.30219e-46 0)
(9.62655e-47 -2.65638e-46 0)
(-1.11562e-47 -4.49893e-46 0)
(-3.17723e-47 -1.15496e-46 0)
(-8.40801e-48 -2.7247e-47 0)
(-2.07435e-48 -4.459e-48 0)
(-6.88313e-49 1.00676e-50 0)
(-2.11965e-48 4.54102e-48 0)
(-8.69485e-48 2.78578e-47 0)
(-3.34437e-47 1.19332e-46 0)
(-1.74764e-47 4.72495e-46 0)
(7.32901e-47 3.53079e-46 0)
(9.83398e-47 -5.01091e-46 0)
(6.70337e-51 -9.54289e-46 0)
(-9.82829e-47 -5.01174e-46 0)
(-7.28864e-47 3.52359e-46 0)
(1.99978e-47 4.67016e-46 0)
(4.23083e-47 7.78345e-47 0)
(-4.71699e-36 6.38653e-36 0)
(-5.19396e-37 6.10657e-37 0)
(-5.19941e-38 5.77132e-38 0)
(-5.0347e-39 5.14561e-39 0)
(-4.56552e-40 4.46286e-40 0)
(-3.99874e-41 3.68816e-41 0)
(-3.32999e-42 2.95742e-42 0)
(-2.68154e-43 2.27833e-43 0)
(-2.0716e-44 1.70465e-44 0)
(-1.55047e-45 1.23307e-45 0)
(-1.11936e-46 8.68362e-47 0)
(-7.84092e-48 5.94801e-48 0)
(-5.34833e-49 4.04905e-49 0)
(-5.84673e-50 7.72302e-50 0)
(-1.41033e-49 3.30852e-49 0)
(-5.74238e-49 1.96116e-48 0)
(-2.15563e-48 8.27046e-48 0)
(-7.4786e-49 3.19956e-47 0)
(6.53593e-48 1.88148e-47 0)
(5.10786e-48 -5.90222e-47 0)
(-7.9999e-48 -5.24348e-47 0)
(-7.9999e-48 5.24348e-47 0)
(5.10786e-48 5.90222e-47 0)
(6.53593e-48 -1.88148e-47 0)
(-7.47867e-49 -3.19956e-47 0)
(-2.15569e-48 -8.27036e-48 0)
(-5.74596e-49 -1.96021e-48 0)
(-1.42559e-49 -3.22358e-49 0)
(-4.75502e-50 7.34738e-52 0)
(-1.45699e-49 3.28329e-49 0)
(-5.94395e-49 2.00451e-48 0)
(-2.27039e-48 8.54749e-48 0)
(-1.17897e-48 3.36199e-47 0)
(4.98171e-48 2.50663e-47 0)
(6.67848e-48 -3.56781e-47 0)
(4.8715e-52 -6.79124e-47 0)
(-6.6744e-48 -3.56844e-47 0)
(-4.95316e-48 2.5012e-47 0)
(1.35528e-48 3.32151e-47 0)
(2.89102e-48 5.55907e-48 0)
(-4.19315e-35 7.19113e-36 0)
(-4.49997e-36 6.4425e-37 0)
(-4.40013e-37 5.90892e-38 0)
(-4.19523e-38 5.19524e-39 0)
(-3.75208e-39 4.47142e-40 0)
(-3.25565e-40 3.67496e-41 0)
(-2.68934e-41 2.93343e-42 0)
(-2.15405e-42 2.24999e-43 0)
(-1.65699e-43 1.67619e-44 0)
(-1.23725e-44 1.20653e-45 0)
(-8.92369e-46 8.4475e-47 0)
(-6.25769e-47 5.73839e-48 0)
(-4.25612e-48 3.80311e-49 0)
(-2.8348e-49 2.80228e-50 0)
(-2.74772e-50 2.42923e-50 0)
(-3.95273e-50 1.34933e-49 0)
(-1.43361e-49 5.65743e-49 0)
(-4.92158e-50 2.17372e-48 0)
(4.34646e-49 1.27311e-48 0)
(3.39199e-49 -4.00849e-48 0)
(-5.31773e-49 -3.55839e-48 0)
(-5.31773e-49 3.55839e-48 0)
(3.39199e-49 4.00849e-48 0)
(4.34646e-49 -1.27311e-48 0)
(-4.92121e-50 -2.17372e-48 0)
(-1.43296e-49 -5.65731e-49 0)
(-3.84192e-50 -1.3478e-49 0)
(-9.56717e-51 -2.2278e-50 0)
(-3.20338e-51 5.13191e-53 0)
(-9.77914e-51 2.26938e-50 0)
(-3.97523e-50 1.37853e-49 0)
(-1.50985e-49 5.84871e-49 0)
(-7.80007e-50 2.28528e-48 0)
(3.31581e-49 1.69998e-48 0)
(4.44213e-49 -2.42686e-48 0)
(3.42264e-53 -4.61706e-48 0)
(-4.43929e-49 -2.42732e-48 0)
(-3.29617e-49 1.69609e-48 0)
(9.0014e-50 2.25679e-48 0)
(1.93458e-49 3.7918e-49 0)
(-6.64662e-35 2.21039e-37 0)
(-7.1005e-36 -2.49007e-37 0)
(-6.91097e-37 -3.3469e-38 0)
(-6.56736e-38 -3.28685e-39 0)
(-5.85449e-39 -2.9355e-40 0)
(-5.06712e-40 -2.44581e-41 0)
(-4.17554e-41 -1.96368e-42 0)
(-3.33783e-42 -1.51137e-43 0)
(-2.56276e-43 -1.12853e-44 0)
(-1.91055e-44 -8.13859e-46 0)
(-1.37592e-45 -5.70628e-47 0)
(-9.63616e-47 -3.8803e-48 0)
(-6.54574e-48 -2.5695e-49 0)
(-4.33222e-49 -1.6316e-50 0)
(-2.84838e-50 4.92943e-52 0)
(-4.22649e-51 8.9882e-51 0)
(-9.29535e-51 3.78468e-50 0)
(-3.13065e-51 1.44627e-49 0)
(2.78811e-50 8.4415e-50 0)
(2.17288e-50 -2.66617e-49 0)
(-3.40979e-50 -2.36525e-49 0)
(-3.40979e-50 2.36525e-49 0)
(2.17288e-50 2.66617e-49 0)
(2.78815e-50 -8.4415e-50 0)
(-3.12426e-51 -1.44627e-49 0)
(-9.18838e-51 -3.78502e-50 0)
(-2.47762e-51 -9.04798e-51 0)
(-6.19263e-52 -1.50123e-51 0)
(-2.08135e-52 3.48175e-54 0)
(-6.33064e-52 1.5294e-51 0)
(-2.56419e-51 9.25548e-51 0)
(-9.68561e-51 3.91395e-50 0)
(-4.97848e-51 1.5211e-49 0)
(2.12884e-50 1.12942e-49 0)
(2.85007e-50 -1.61617e-49 0)
(2.30792e-54 -3.07355e-49 0)
(-2.84817e-50 -1.6165e-49 0)
(-2.11585e-50 1.12671e-49 0)
(5.76597e-51 1.50159e-49 0)
(1.24775e-50 2.53213e-50 0)
(-1.95131e-36 -6.25868e-36 0)
(-2.07926e-37 -1.06378e-36 0)
(-2.0185e-38 -1.17341e-37 0)
(-1.91445e-39 -1.0946e-38 0)
(-1.70339e-40 -9.60944e-40 0)
(-1.47208e-41 -7.9509e-41 0)
(-1.21129e-42 -6.3618e-42 0)
(-9.67099e-44 -4.88473e-43 0)
(-7.41668e-45 -3.64081e-44 0)
(-5.52365e-46 -2.62135e-45 0)
(-3.97421e-47 -1.83537e-46 0)
(-2.78099e-48 -1.24646e-47 0)
(-1.88761e-49 -8.24583e-49 0)
(-1.24876e-50 -5.30549e-50 0)
(-8.4096e-52 -3.23283e-51 0)
(-2.06317e-52 3.81991e-52 0)
(-5.79045e-52 2.43004e-51 0)
(-1.94324e-52 9.2807e-51 0)
(1.74825e-51 5.39908e-51 0)
(1.36082e-51 -1.71048e-50 0)
(-2.13727e-51 -1.51646e-50 0)
(-2.13727e-51 1.51646e-50 0)
(1.36082e-51 1.71048e-50 0)
(1.74826e-51 -5.39911e-51 0)
(-1.94143e-52 -9.28141e-51 0)
(-5.75978e-52 -2.44223e-51 0)
(-1.5606e-52 -5.85795e-52 0)
(-3.91073e-53 -9.75489e-53 0)
(-1.31836e-53 2.16293e-55 0)
(-3.99813e-53 9.93962e-53 0)
(-1.61541e-52 5.99309e-52 0)
(-6.07353e-52 2.52598e-51 0)
(-3.10834e-52 9.76548e-51 0)
(1.3358e-51 7.2376e-51 0)
(1.78737e-51 -1.03812e-50 0)
(1.52153e-55 -1.97347e-50 0)
(-1.78613e-51 -1.03833e-50 0)
(-1.32744e-51 7.21952e-51 0)
(3.61126e-52 9.63685e-51 0)
(7.86419e-52 1.63078e-51 0)
(6.61855e-35 -2.72687e-37 0)
(7.07067e-36 -3.08994e-37 0)
(6.88203e-37 -3.96009e-38 0)
(6.53998e-38 -3.84712e-39 0)
(5.83017e-39 -3.42482e-40 0)
(5.04614e-40 -2.85058e-41 0)
(4.1583e-41 -2.28793e-42 0)
(3.32409e-42 -1.76071e-43 0)
(2.55224e-43 -1.31465e-44 0)
(1.90272e-44 -9.4806e-46 0)
(1.3703e-45 -6.64724e-47 0)
(9.59683e-47 -4.52027e-48 0)
(6.51906e-48 -2.99383e-49 0)
(4.31357e-49 -1.92886e-50 0)
(2.77656e-50 -1.20617e-51 0)
(1.73444e-51 -3.73316e-53 0)
(7.1785e-53 1.49318e-52 0)
(-5.2948e-54 5.81902e-52 0)
(1.06724e-52 3.37862e-52 0)
(8.26873e-53 -1.07247e-51 0)
(-1.29962e-52 -9.50391e-52 0)
(-1.29944e-52 9.50437e-52 0)
(8.26818e-53 1.07285e-51 0)
(1.0633e-52 -3.37552e-52 0)
(-1.17151e-53 -5.82126e-52 0)
(-3.50302e-53 -1.53941e-52 0)
(-9.52071e-54 -3.7024e-53 0)
(-2.40595e-54 -5.99842e-54 0)
(-8.23545e-55 -1.91632e-55 0)
(-2.43675e-54 6.24608e-54 0)
(-9.86524e-54 3.78532e-53 0)
(-3.69356e-53 1.59239e-52 0)
(-1.88232e-53 6.12908e-52 0)
(8.12889e-53 4.5356e-52 0)
(1.08725e-52 -6.51799e-52 0)
(3.3028e-56 -1.23845e-51 0)
(-1.08661e-52 -6.51541e-52 0)
(-8.0804e-53 4.52143e-52 0)
(2.19381e-53 6.04453e-52 0)
(4.80717e-53 1.02529e-52 0)
(4.46603e-35 6.7319e-36 0)
(4.79528e-36 5.96519e-37 0)
(4.69106e-37 5.44033e-38 0)
(4.47435e-38 4.76832e-39 0)
(4.0031e-39 4.09607e-40 0)
(3.47452e-40 3.36119e-41 0)
(2.87093e-41 2.67946e-42 0)
(2.30007e-42 2.0526e-43 0)
(1.76972e-43 1.52735e-44 0)
(1.32171e-44 1.09807e-45 0)
(9.53476e-46 7.6787e-47 0)
(6.68751e-47 5.20882e-48 0)
(4.54912e-48 3.44234e-49 0)
(3.01383e-49 2.21341e-50 0)
(1.94235e-50 1.38893e-51 0)
(1.22051e-51 8.66076e-53 0)
(7.27804e-53 1.21217e-53 0)
(4.14259e-54 3.50105e-53 0)
(6.80513e-54 2.41214e-53 0)
(4.75835e-54 -6.21717e-53 0)