/*--------------------------------*- C++ -*----------------------------------*\
| =========                 |                                                 |
| \\      /  F ield         | OpenFOAM: The Open Source CFD Toolbox           |
|  \\    /   O peration     | Version:  2.4.0                                 |
|   \\  /    A nd           | Web:      www.OpenFOAM.org                      |
|    \\/     M anipulation  |                                                 |
\*---------------------------------------------------------------------------*/
FoamFile
{
    version     2.0;
    format      ascii;
    class       surfaceScalarField;
    location    "0.95";
    object      phi;
}
// * * * * * * * * * * * * * * * * * * * * * * * * * * * * * * * * * * * * * //

dimensions      [0 3 -1 0 0 0 0];

internalField   nonuniform List<scalar> 
3781
(
4.9997e-39
1.41613e-40
2.47627e-38
7.05935e-40
3.62542e-38
4.00022e-39
6.07364e-37
2.81675e-39
1.26968e-40
-7.68246e-39
-6.06509e-37
-7.66156e-39
-3.0461e-38
2.97853e-39
5.17988e-39
4.84857e-39
5.68299e-38
5.43378e-39
6.4878e-37
7.12213e-39
6.37914e-37
-3.9786e-39
-5.4043e-37
-1.04991e-38
3.06766e-38
2.81667e-39
6.13251e-37
6.81616e-39
3.71062e-38
-2.98172e-39
2.49035e-38
-4.02479e-39
5.06806e-39
-7.08166e-40
7.26325e-40
-1.41028e-40
1.12096e-40
-2.13217e-41
1.49182e-41
-3.19562e-42
1.97106e-42
-4.22268e-43
2.3898e-43
-5.37245e-44
2.84714e-44
-6.31056e-45
6.26627e-45
-6.36329e-46
2.87675e-44
6.44031e-46
2.41757e-43
6.37868e-45
1.996e-42
5.436e-44
1.51283e-41
4.27858e-43
1.13822e-40
3.24287e-42
7.39215e-40
2.16888e-41
5.16475e-39
1.43789e-40
2.55138e-38
7.26184e-40
4.14179e-38
4.14365e-39
6.32861e-37
3.54243e-39
4.14179e-38
-3.54243e-39
2.55138e-38
-4.14365e-39
5.16476e-39
-7.26184e-40
7.39215e-40
-1.43789e-40
1.13821e-40
-2.1691e-41
1.51226e-41
-3.258e-42
1.96708e-42
-5.26539e-43
1.32798e-43
-6.07718e-43
-3.16996e-43
-2.8314e-42
-1.03692e-41
2.0688e-39
-1.74292e-40
9.59189e-39
-1.21404e-39
4.66225e-38
-6.35692e-39
7.14227e-38
-4.28387e-39
6.49081e-41
1.21076e-38
-7.10076e-38
1.20771e-38
-4.4161e-38
-4.53529e-39
2.16967e-39
-7.79808e-39
5.45312e-38
-8.82467e-39
1.20205e-37
-1.11167e-38
8.34734e-38
6.32573e-39
-1.26831e-38
1.63914e-38
1.21154e-38
-4.28376e-39
7.39311e-38
-1.064e-38
4.7036e-38
4.53946e-39
9.66483e-39
6.3924e-39
2.11298e-39
1.22089e-39
3.49274e-40
2.21074e-40
5.68497e-41
3.10269e-41
8.08759e-42
4.18908e-42
1.10813e-42
5.09056e-43
1.39547e-43
5.98424e-44
1.70599e-44
6.59409e-45
3.84627e-45
6.32018e-46
1.72446e-44
-6.38992e-46
1.41247e-43
-6.65859e-45
1.12302e-42
-6.04737e-44
8.20985e-42
-5.14938e-43
5.78145e-41
-4.24218e-42
3.5622e-40
-3.14747e-41
2.16146e-39
-2.2474e-40
9.95503e-39
-1.24761e-39
4.87835e-38
-6.58143e-39
8.13686e-38
-5.53087e-39
4.87835e-38
5.53087e-39
9.95503e-39
6.58143e-39
2.16146e-39
1.24761e-39
3.56219e-40
2.24739e-40
5.78058e-41
3.14617e-41
8.16075e-42
4.14936e-42
8.73146e-43
-9.85463e-44
-8.08156e-43
-3.43264e-42
-3.02685e-42
-1.81321e-41
-6.79375e-41
5.88685e-40
-8.029e-41
2.22448e-39
-5.1424e-40
8.40692e-39
-2.20468e-39
1.20645e-38
-1.33694e-39
2.31678e-41
4.17186e-39
-1.19284e-38
4.15672e-39
-7.69498e-39
-1.45337e-39
6.19623e-40
-2.82245e-39
1.01722e-38
-3.25137e-39
2.10872e-38
-3.76087e-39
1.49986e-38
2.18875e-39
-6.99829e-40
5.50868e-39
2.95723e-39
-1.33678e-39
1.27926e-38
-3.5407e-39
8.54219e-39
1.45556e-39
2.24964e-39
2.22209e-39
5.99572e-40
5.1715e-40
1.12526e-40
1.01456e-40
2.01168e-41
1.5451e-41
3.06023e-42
2.19715e-42
4.41079e-43
2.80547e-43
5.7755e-44
3.42147e-44
7.28491e-45
3.89931e-45
1.68308e-45
3.82862e-46
7.36715e-45
-3.8729e-46
5.84969e-44
-3.93938e-45
4.47413e-43
-3.45971e-44
3.1106e-42
-2.84014e-43
2.04985e-41
-2.22737e-42
1.1513e-40
-1.56965e-41
6.16513e-40
-1.03365e-40
2.34116e-39
-5.30335e-40
9.02308e-39
-2.30753e-39
1.44022e-38
-1.86684e-39
9.02308e-39
1.86684e-39
2.34116e-39
2.30753e-39
6.16511e-40
5.30334e-40
1.15122e-40
1.03355e-40
2.04418e-41
1.56223e-41
2.78663e-42
1.69404e-42
-1.22291e-42
-3.29103e-42
-6.38006e-42
-2.06618e-41
-2.09523e-41
-1.09591e-40
-4.20021e-40
1.22441e-40
-3.38753e-41
3.79937e-40
-1.66086e-40
1.16638e-39
-6.46464e-40
1.58207e-39
-3.73165e-40
5.90839e-42
1.21836e-39
-1.54979e-39
1.21309e-39
-1.01569e-39
-4.12157e-40
1.29469e-40
-8.41638e-40
1.4549e-39
-9.75655e-40
2.87675e-39
-1.09096e-39
2.11163e-39
6.38276e-40
1.19887e-40
1.59096e-39
5.35479e-40
-3.72426e-40
1.73664e-39
-1.01612e-39
1.19831e-39
4.12971e-40
3.86056e-40
6.50242e-40
1.24406e-40
1.63652e-40
2.62395e-41
3.43238e-41
5.08179e-42
5.52575e-42
8.19143e-43
8.23136e-43
1.23078e-43
1.09213e-43
1.6654e-44
1.37424e-44
2.15521e-45
1.60711e-45
5.08255e-46
1.60845e-46
2.1804e-45
-1.62771e-46
1.68775e-44
-1.62425e-45
1.24945e-43
-1.39031e-44
8.3361e-43
-1.10638e-43
5.18771e-42
-8.35231e-43
2.69313e-41
-5.62086e-42
1.28635e-40
-3.50345e-41
4.06967e-40
-1.68327e-40
1.29483e-39
-6.78821e-40
1.98806e-39
-5.40644e-40
1.29483e-39
5.40644e-40
4.06966e-40
6.7882e-40
1.28628e-40
1.68321e-40
2.68789e-41
3.49855e-41
4.83906e-42
5.2312e-42
-1.18544e-42
-2.00213e-42
-1.04478e-41
-1.92308e-41
-4.14638e-41
-1.1427e-40
-1.37444e-40
-6.19984e-40
-2.44618e-39
2.19553e-41
-5.17432e-41
5.55035e-41
-6.20654e-41
1.24971e-40
-1.60637e-40
1.54641e-40
-8.42554e-41
1.38432e-42
2.72116e-40
-1.47638e-40
2.71537e-40
-9.61801e-41
-8.999e-41
2.40575e-41
-1.9213e-40
1.63284e-40
-2.23903e-40
3.02703e-40
-2.43095e-40
2.37276e-40
1.42821e-40
5.43487e-41
3.53022e-40
8.41992e-41
-7.98633e-41
1.8358e-40
-2.24115e-40
1.31182e-40
9.01833e-41
5.61583e-41
1.45997e-40
2.2936e-41
3.92138e-41
5.39339e-42
8.66823e-42
1.12566e-42
1.4621e-42
1.90711e-43
2.2611e-43
2.97312e-44
3.09658e-44
4.13796e-45
3.99573e-45
5.4769e-46
4.77251e-46
1.3146e-46
4.85061e-47
5.5429e-46
-4.91037e-47
4.19564e-45
-4.82498e-46
3.02043e-44
-4.04417e-45
1.94293e-43
-3.1388e-44
1.15112e-42
-2.29616e-43
5.55329e-42
-1.48897e-42
2.38627e-41
-8.86242e-42
6.03663e-41
-4.04418e-41
1.48341e-40
-1.53141e-40
2.14534e-40
-1.20274e-40
1.4834e-40
1.20274e-40
6.0361e-41
1.53138e-40
2.38214e-41
4.04144e-41
5.25447e-42
8.62957e-42
-8.6526e-43
-3.88109e-43
-1.1671e-41
-1.36666e-41
-6.32939e-41
-9.67135e-41
-2.5389e-40
-5.86846e-40
-8.59743e-40
-3.28616e-39
-1.34684e-38
-6.5591e-43
-2.64421e-40
1.18965e-41
-1.4146e-40
1.25853e-41
-1.23986e-40
1.08557e-41
-4.07377e-41
6.96061e-43
4.97138e-41
-7.86185e-42
5.41579e-41
-4.69684e-42
-1.81623e-41
4.0783e-42
-3.95468e-41
1.41122e-41
-4.62033e-41
2.28109e-41
-4.9249e-41
2.11304e-41
2.89551e-41
1.25151e-41
7.12708e-41
1.21664e-41
-1.5741e-41
1.42388e-41
-4.50251e-41
1.08111e-41
1.80445e-41
7.37564e-42
2.96884e-41
3.85572e-42
8.31805e-42
9.94541e-43
1.92204e-42
2.20497e-43
3.36642e-43
3.89076e-44
5.37606e-44
6.25128e-45
7.56018e-45
8.90831e-46
9.96797e-46
1.2017e-46
1.21197e-46
2.92841e-47
1.2481e-47
1.21656e-46
-1.26385e-47
9.03656e-46
-1.22564e-46
6.35481e-45
-1.00926e-45
3.96763e-44
-7.66719e-45
2.25829e-43
-5.4633e-44
1.02696e-42
-3.43177e-43
4.03552e-42
-1.96799e-42
8.13711e-42
-8.59893e-42
1.3594e-41
-3.12586e-41
1.7314e-41
-2.43325e-41
1.35908e-41
2.43311e-41
8.1103e-42
3.12462e-41
3.82117e-42
8.48496e-42
-5.47768e-43
9.87631e-43
-1.05731e-41
-7.68706e-42
-6.47362e-41
-6.05988e-41
-3.53624e-40
-4.3353e-40
-1.45578e-39
-2.72154e-39
-5.05602e-39
-1.58823e-38
-6.84744e-38
-1.89691e-41
-1.43839e-39
3.49318e-41
-7.20763e-40
1.98678e-41
-5.23805e-40
9.7792e-42
-1.36726e-40
2.69717e-42
-2.02237e-41
1.20484e-42
4.77145e-42
6.55524e-43
-4.10211e-42
6.80905e-43
-7.4249e-42
7.5001e-43
-8.57504e-42
5.20911e-43
-8.9856e-42
1.29892e-42
5.28265e-42
2.35905e-42
1.29596e-41
1.72756e-42
-2.80129e-42
4.43958e-43
-8.15083e-42
4.67214e-43
3.25669e-42
9.43174e-43
5.43201e-42
6.23127e-43
1.57645e-42
1.72529e-43
3.7781e-43
4.00808e-44
6.82982e-44
7.30085e-45
1.12027e-44
1.202e-45
1.61104e-45
1.74636e-46
2.16316e-46
2.39357e-47
2.67052e-47
5.90769e-48
2.78129e-48
2.42383e-47
-2.81713e-48
1.77219e-46
-2.70133e-47
1.22257e-45
-2.19093e-46
7.45117e-45
-1.63458e-45
4.11023e-44
-1.13916e-44
1.7858e-43
-6.96867e-44
6.55554e-43
-3.87349e-43
1.07319e-42
-1.63311e-42
9.02939e-43
-5.73833e-42
6.81572e-43
-4.43325e-42
8.88338e-43
4.42813e-42
9.46972e-43
5.69337e-42
-3.67147e-43
1.2177e-42
-7.45454e-42
-3.24111e-42
-5.33412e-41
-3.02518e-41
-3.27769e-40
-2.35017e-40
-1.84057e-39
-1.74116e-39
-7.82745e-39
-1.1462e-38
-2.81013e-38
-7.09429e-38
-3.27913e-37
-2.76733e-41
-7.4467e-39
2.51878e-40
-3.57157e-39
1.25527e-40
-2.58818e-39
5.98018e-41
-6.51163e-40
1.50986e-41
-1.41284e-40
3.60711e-42
-2.26233e-41
7.99321e-43
-4.37967e-42
1.9895e-43
-1.79606e-42
-1.62949e-44
-1.55312e-42
-2.13983e-43
-1.54755e-42
3.51125e-45
9.03585e-43
3.94201e-43
2.21416e-42
2.4473e-43
-4.70444e-43
-1.03488e-43
-1.38741e-42
-4.82184e-44
5.53567e-43
1.21738e-43
9.32413e-43
9.67635e-44
2.77948e-43
2.81944e-44
6.86401e-44
6.78044e-45
1.27308e-44
1.26622e-45
2.13495e-45
2.12596e-46
3.12765e-46
3.13871e-47
4.26426e-47
4.35989e-48
5.33257e-48
1.08787e-48
5.6072e-49
4.41606e-48
-5.68076e-49
3.1862e-47
-5.39527e-48
2.16336e-46
-4.32025e-47
1.29317e-45
-3.17459e-46
6.96052e-45
-2.17212e-45
2.92388e-44
-1.29997e-44
1.02208e-43
-7.04525e-44
1.42656e-43
-2.8847e-43
1.71116e-44
-9.87814e-43
-9.87878e-44
-7.59857e-43
-4.27504e-44
7.45563e-43
-3.81186e-43
8.60821e-43
-4.20766e-42
-9.01605e-43
-3.27334e-41
-1.05105e-41
-2.34393e-40
-9.06132e-41
-1.47951e-39
-7.27513e-40
-8.58636e-39
-5.67179e-39
-3.7962e-38
-4.01132e-38
-1.41597e-37
-2.70118e-37
-1.3801e-36
6.66892e-40
-3.52184e-38
1.89013e-39
-1.65507e-38
7.98999e-40
-1.21429e-38
3.40251e-40
-2.9281e-39
8.11442e-41
-6.19155e-40
1.73505e-41
-1.01567e-40
3.01839e-42
-1.56477e-41
4.871e-43
-2.31803e-42
4.97531e-44
-5.12527e-43
-4.81186e-44
-2.79905e-43
-1.47793e-44
1.41698e-43
6.14518e-44
3.54841e-43
3.48217e-44
-7.43645e-44
-2.96245e-44
-2.21849e-43
-1.72505e-44
8.84149e-44
1.61701e-44
1.50194e-43
1.45657e-44
4.57957e-44
4.39535e-45
1.15881e-44
1.08433e-45
2.19522e-45
2.06461e-46
3.74891e-46
3.52169e-47
5.57756e-47
5.26856e-48
7.7024e-48
7.40101e-49
9.73759e-49
1.86379e-49
1.03227e-49
7.49782e-49
-1.04602e-49
5.34973e-48
-9.85401e-49
3.58493e-47
-7.80556e-48
2.10962e-46
-5.66328e-47
1.11391e-45
-3.81607e-46
4.56305e-45
-2.24323e-45
1.54102e-44
-1.19073e-44
1.91707e-44
-4.76239e-44
-9.92333e-45
-1.59734e-43
-5.37162e-44
-1.24627e-43
-2.25896e-43
9.34284e-44
-1.89885e-42
-1.21475e-43
-1.60603e-41
-2.63538e-42
-1.24919e-40
-2.44158e-41
-9.18983e-40
-2.17142e-40
-5.9952e-39
-1.84329e-39
-3.62674e-38
-1.56645e-38
-1.68066e-37
-1.24324e-37
-6.64415e-37
-9.54931e-37
-5.61256e-36
1.01521e-38
-1.58658e-37
1.38899e-38
-6.53544e-38
4.86622e-39
-4.65103e-38
1.77209e-39
-1.06938e-38
3.93762e-40
-2.16459e-39
7.99625e-41
-3.43338e-40
1.33171e-41
-5.09511e-41
2.05926e-42
-6.79127e-42
2.81223e-43
-8.93556e-43
2.70628e-44
-1.42219e-43
1.01372e-45
1.34643e-44
9.50961e-45
5.91133e-44
4.94563e-45
-1.25865e-44
-5.26802e-45
-3.75756e-44
-3.21308e-45
1.49591e-44
2.17621e-45
2.55806e-44
2.11077e-45
7.93714e-45
6.52926e-46
2.04629e-45
1.64211e-46
3.94026e-46
3.17615e-47
6.8245e-47
5.48886e-48
1.02769e-47
8.30421e-49
1.43358e-48
1.17781e-49
1.82812e-49
2.98979e-50
1.95056e-50
1.19324e-49
-1.97688e-50
8.43172e-49
-1.85027e-49
5.58616e-48
-1.45308e-48
3.24308e-47
-1.04378e-47
1.68354e-46
-6.94955e-47
6.73438e-46
-4.02886e-46
2.18067e-45
-2.10462e-45
2.00791e-45
-8.26861e-45
-8.43298e-45
-2.73096e-44
-7.03506e-44
-2.17798e-44
-6.12518e-43
9.3334e-45
-5.45166e-42
-9.04158e-44
-4.66513e-41
-1.20014e-42
-3.71592e-40
-1.24381e-41
-2.8184e-39
-1.36218e-40
-1.90815e-38
-1.57243e-39
-1.20746e-37
-1.91333e-38
-5.90566e-37
-2.18719e-37
-2.48509e-36
-2.20403e-36
-1.6679e-35
1.67508e-37
-9.16326e-37
1.63673e-37
-3.82713e-37
4.8643e-38
-2.7477e-37
1.5123e-38
-5.54673e-38
3.07106e-39
-1.0593e-38
5.87173e-40
-1.58964e-39
9.35842e-41
-2.27926e-40
1.40213e-41
-2.93205e-41
1.89161e-42
-3.62214e-42
2.40117e-43
-4.20633e-43
2.81389e-44
-4.39306e-44
4.6027e-45
5.57674e-46
1.0638e-45
-1.59402e-45
-8.25699e-46
-3.4043e-45
-5.32038e-46
1.33379e-45
3.09463e-46
2.29932e-45
3.13977e-46
7.26443e-46
9.88267e-47
1.91897e-46
2.52029e-47
3.77057e-47
4.93183e-48
6.65779e-48
8.60588e-49
1.01922e-48
1.31296e-49
1.44284e-49
1.87549e-50
1.86352e-50
4.78375e-51
2.00848e-51
1.89319e-50
-2.03451e-51
1.32413e-49
-1.88453e-50
8.64452e-49
-1.46024e-49
4.89568e-48
-1.03217e-48
2.41676e-47
-6.74057e-48
8.26441e-47
-3.80634e-47
1.08857e-46
-1.91467e-46
-2.03639e-45
-6.88545e-46
-2.54309e-44
-1.69457e-45
-2.50782e-43
6.17987e-45
-2.39922e-42
8.40804e-44
-2.18791e-41
8.02014e-43
-1.92135e-40
7.34141e-42
-1.57626e-39
6.04263e-41
-1.24393e-38
4.05312e-40
-8.80017e-38
1.06191e-39
-5.95511e-37
-2.65268e-38
-3.12666e-36
-6.65486e-37
-1.53633e-35
-9.29701e-36
-9.45032e-35
2.19327e-36
-1.26622e-36
1.73142e-36
-1.11715e-36
3.97859e-37
-3.16087e-37
9.62775e-38
-5.25084e-38
1.71379e-38
-9.04333e-39
2.96845e-39
-1.29762e-39
4.43864e-40
-1.82364e-40
6.34095e-41
-2.32184e-41
8.2678e-42
-2.85183e-42
1.02841e-42
-3.27701e-43
1.19769e-43
-3.59503e-44
1.34715e-44
-3.28902e-45
1.47335e-45
-4.84765e-46
7.09353e-47
-3.48544e-46
-3.17729e-47
1.20573e-46
2.6261e-47
2.13973e-46
2.60125e-47
6.84742e-47
8.2872e-48
1.82784e-47
2.14484e-48
3.62642e-48
4.25277e-49
6.45186e-49
7.51214e-50
9.9435e-50
1.15844e-50
1.41495e-50
1.6713e-51
1.83572e-51
4.33604e-52
1.98535e-52
1.73786e-51
-2.00076e-52
1.23347e-50
-1.84335e-51
8.35491e-50
-1.41477e-50
5.1972e-49
-9.84771e-50
3.19903e-48
-6.25384e-49
1.98784e-47
-3.3222e-48
1.51184e-46
-1.42352e-47
1.33914e-45
-1.91089e-47
1.33279e-44
3.49786e-46
1.30593e-43
5.9863e-45
1.22838e-42
6.33956e-44
1.09664e-41
6.18161e-43
9.3672e-41
5.72172e-42
7.47849e-40
4.7935e-41
5.67769e-39
3.37434e-40
3.87839e-38
1.23027e-39
2.47324e-37
-1.44254e-38
1.24448e-36
-4.39639e-37
5.43258e-36
-6.4762e-36
-6.8974e-35
3.9551e-35
-1.97112e-35
2.85435e-36
-1.40853e-36
2.19945e-36
4.48123e-38
4.97434e-37
3.03993e-38
8.05378e-38
7.71933e-39
1.34118e-38
1.24924e-39
1.921e-39
1.84034e-40
2.6761e-40
2.37904e-41
3.40441e-41
2.93293e-42
4.16274e-42
3.36607e-43
4.77169e-43
3.71455e-44
5.25549e-44
3.92961e-45
5.50572e-45
3.83607e-46
5.48377e-46
1.15388e-47
4.97098e-47
1.40471e-47
7.07837e-48
1.85461e-47
2.62739e-48
5.92525e-48
7.42001e-49
1.59665e-48
1.8691e-49
3.20104e-49
3.69697e-50
5.75163e-50
6.54742e-51
8.94334e-51
1.01407e-51
1.28255e-51
1.48066e-52
1.67532e-52
5.39058e-53
1.81132e-53
3.5905e-52
-1.97771e-53
3.72861e-51
-1.8741e-52
4.03937e-50
-1.53496e-51
4.47268e-49
-1.20974e-50
5.02051e-48
-9.62171e-50
5.59079e-47
-7.84141e-49
6.12672e-46
-7.02777e-48
6.51394e-45
-6.76459e-47
6.70857e-44
-6.99545e-46
6.6278e-43
-7.25852e-45
6.30436e-42
-7.43344e-44
5.69987e-41
-7.2503e-43
4.9477e-40
-6.65964e-42
4.01869e-39
-5.43424e-41
3.12503e-38
-3.49021e-40
2.18909e-37
-4.85858e-40
1.45498e-36
3.337e-38
7.63579e-36
7.52694e-37
3.67885e-35
1.03648e-35
1.05931e-34
2.37363e-36
-9.55476e-37
1.49454e-36
-7.22948e-37
3.49063e-37
1.46568e-37
8.60665e-38
4.40837e-38
1.56041e-38
9.75501e-39
2.74388e-39
1.53551e-39
4.15005e-40
2.24517e-40
5.98203e-41
2.90834e-41
7.85432e-42
3.59871e-42
9.82586e-43
4.14925e-43
1.14988e-43
4.59473e-44
1.2871e-44
4.83185e-45
1.3677e-45
4.8797e-46
1.39046e-46
4.51636e-47
1.33271e-47
5.32467e-48
1.44966e-48
1.94368e-48
2.90319e-49
5.38717e-49
6.68235e-50
1.40133e-49
1.57804e-50
2.79639e-50
3.07598e-51
5.03054e-51
5.43727e-52
7.84912e-52
8.44396e-53
1.12947e-52
1.24103e-53
1.47982e-53
4.96182e-54
1.52945e-54
3.55979e-53
-2.79228e-54
3.79512e-52
-3.06172e-53
4.17707e-51
-3.20484e-52
4.65282e-50
-3.44092e-51
5.19922e-49
-3.81541e-50
5.72713e-48
-4.29524e-49
6.1721e-47
-4.87127e-48
6.43675e-46
-5.45253e-47
6.47506e-45
-5.98762e-46
6.23837e-44
-6.35976e-45
5.75235e-43
-6.51903e-44
5.03291e-42
-6.33754e-43
4.1823e-41
-5.76396e-42
3.24742e-40
-4.5633e-41
2.36156e-39
-2.60253e-40
1.54939e-38
4.63765e-40
9.13094e-38
4.40964e-38
4.33506e-37
8.66368e-37
1.5185e-36
1.13941e-35
1.12082e-34
2.81734e-37
-7.22295e-37
1.60528e-38
-1.33735e-37
1.70638e-38
1.87946e-38
8.40999e-39
7.89831e-39
2.04723e-39
1.92169e-39
4.35993e-40
3.24633e-40
7.40071e-41
4.95529e-41
1.15752e-41
6.66314e-42
1.60931e-42
8.47182e-43
2.10233e-43
1.00038e-43
2.54289e-44
1.12876e-44
2.92178e-45
1.20629e-45
3.17019e-46
1.23693e-46
3.28723e-47
1.19705e-47
3.23832e-48
1.22035e-48
3.24071e-49
2.28091e-49
4.21957e-50
4.98467e-50
7.00824e-51
1.19379e-50
1.40357e-51
2.33574e-51
2.58456e-52
4.18408e-52
4.47024e-53
6.5389e-53
6.86275e-54
9.43848e-54
5.66038e-55
1.24866e-54
-5.64372e-54
2.38055e-55
-7.7228e-53
1.28169e-54
-1.00318e-51
1.79391e-53
-1.26563e-50
2.4367e-52
-1.54927e-49
3.18658e-51
-1.84126e-48
4.02522e-50
-2.11859e-47
4.91614e-49
-2.36272e-46
5.81485e-48
-2.54134e-45
6.64773e-47
-2.64337e-44
7.35768e-46
-2.63642e-43
7.84629e-45
-2.53702e-42
8.0914e-44
-2.31977e-41
8.00749e-43
-2.04344e-40
7.68776e-42
-1.68199e-39
7.10486e-41
-1.33295e-38
6.52926e-40
-9.46995e-38
5.93426e-39
-6.4441e-37
5.59888e-38
-3.39991e-36
5.12709e-37
-1.6832e-35
4.47483e-36
3.04411e-35
2.692e-38
-1.42484e-37
-1.12432e-38
-2.77398e-38
-1.26109e-39
1.02742e-39
4.61854e-40
1.03738e-39
1.92174e-40
3.04099e-40
5.08951e-41
5.64959e-41
9.65037e-42
9.25383e-42
1.61852e-42
1.31029e-42
2.36159e-43
1.7348e-43
3.19516e-44
2.11396e-44
3.97166e-45
2.44595e-45
4.66195e-46
2.66708e-46
5.14801e-47
2.78186e-47
5.41952e-48
2.75521e-48
5.42399e-49
2.70656e-49
5.34212e-50
3.40722e-50
5.88408e-51
5.37677e-51
7.73433e-52
1.07188e-51
1.27945e-52
1.96832e-52
2.15681e-53
3.43931e-53
3.58705e-54
5.33195e-54
5.60775e-55
7.68632e-55
3.02433e-55
1.14594e-55
3.03572e-54
2.0394e-55
3.9672e-53
2.66286e-54
5.06519e-52
3.60727e-53
6.29319e-51
4.76573e-52
7.59069e-50
6.12851e-51
8.88445e-49
7.67e-50
1.00581e-47
9.32162e-49
1.10146e-46
1.10036e-47
1.16112e-45
1.25733e-46
1.17966e-44
1.39225e-45
1.14598e-43
1.48606e-44
1.06831e-42
1.53425e-43
9.42451e-42
1.52012e-42
7.93764e-41
1.46039e-41
6.21017e-40
1.34853e-40
4.60342e-39
1.23378e-39
3.03604e-38
1.10919e-38
1.85784e-37
1.02829e-37
8.76239e-37
9.20439e-37
3.51552e-36
7.88436e-36
5.26195e-35
3.19568e-39
-1.87884e-38
-2.96009e-39
-4.15116e-39
-5.64368e-40
-1.1707e-40
-2.94185e-41
9.55221e-41
1.17057e-41
3.57417e-41
4.99258e-42
7.33935e-42
1.10977e-42
1.28363e-42
2.03637e-43
1.90543e-43
3.14531e-44
2.61348e-44
4.43269e-45
3.2746e-45
5.68011e-46
3.87282e-46
6.82756e-47
4.29977e-47
7.6838e-48
4.55226e-48
8.2177e-49
4.57786e-49
8.34318e-50
4.48145e-50
8.2127e-51
4.85138e-51
8.36379e-52
6.12438e-52
9.36433e-53
9.93954e-53
1.26814e-53
1.65597e-53
1.87785e-54
2.76616e-54
2.97292e-55
4.21354e-55
1.39549e-55
6.03508e-56
1.3492e-54
9.64667e-57
1.81714e-53
2.56722e-56
2.39742e-52
3.44959e-55
3.0803e-51
4.6986e-54
3.85246e-50
6.24516e-53
4.67986e-49
8.08496e-52
5.5211e-48
1.0195e-50
6.30579e-47
1.24931e-49
6.97607e-46
1.4888e-48
7.43897e-45
1.72021e-47
7.66128e-44
1.93391e-46
7.55916e-43
2.11525e-45
7.1815e-42
2.2947e-44
6.47567e-41
2.53726e-43
5.60698e-40
3.07428e-42
4.53063e-39
4.28317e-41
3.50488e-38
6.83344e-40
2.42859e-37
1.12827e-38
1.59411e-36
1.76522e-37
8.1274e-36
2.42071e-36
3.76415e-35
2.76093e-35
2.44236e-34
3.57974e-40
-2.72783e-39
-4.15709e-40
-6.29188e-40
-9.16257e-41
-5.67435e-41
-1.06814e-41
4.52344e-42
9.80606e-44
3.48427e-42
3.97607e-43
8.34366e-43
1.08712e-43
1.59131e-43
2.19382e-44
2.49646e-44
3.5832e-45
3.56511e-45
5.24713e-46
4.60403e-46
6.91676e-47
5.57551e-47
8.49726e-48
6.30829e-48
9.73174e-49
6.78285e-49
1.05585e-49
6.91656e-50
1.0855e-50
6.80289e-51
1.07421e-51
6.88236e-52
1.06139e-52
7.52774e-53
1.09382e-53
9.99581e-54
1.28251e-54
1.45514e-54
1.67549e-55
2.2489e-55
3.35763e-56
3.29439e-56
1.45048e-55
3.25068e-57
1.96759e-54
-1.95486e-56
2.66423e-53
-2.85728e-55
3.5197e-52
-3.95986e-54
4.5285e-51
-5.35381e-53
5.67224e-50
-7.06011e-52
6.90168e-49
-9.06576e-51
8.15705e-48
-1.13322e-49
9.33466e-47
-1.37569e-48
1.03499e-45
-1.622e-47
1.10633e-44
-1.85073e-46
1.14261e-43
-2.04476e-45
1.13084e-42
-2.17287e-44
1.07833e-41
-2.21899e-43
9.76266e-41
-2.13523e-42
8.4965e-40
-1.89253e-41
6.90342e-39
-1.37972e-40
5.38178e-38
-5.12967e-40
3.75925e-37
8.71417e-39
2.50075e-36
2.68734e-37
1.29174e-35
4.62967e-36
6.17378e-35
5.82776e-35
5.57349e-34
4.42469e-41
-3.3021e-40
-5.3908e-41
-8.09384e-41
-1.27657e-41
-1.0659e-41
-1.9903e-42
-3.16325e-43
-1.39206e-43
2.66842e-43
2.03151e-44
8.04266e-44
9.0917e-45
1.69485e-44
2.12315e-45
2.81623e-45
3.72872e-46
4.18403e-46
5.7184e-47
5.56269e-47
7.78476e-48
6.88873e-48
9.79724e-49
7.93467e-49
1.14334e-49
8.6564e-50
1.25937e-50
8.93879e-51
1.31122e-51
8.85889e-52
1.30779e-52
8.73506e-53
1.27715e-53
8.88415e-54
1.25834e-54
1.02509e-54
1.33504e-55
1.30944e-55
1.54656e-56
1.83893e-56
2.24805e-57
2.46789e-57
4.22568e-57
-1.09293e-57
5.51411e-56
-2.08925e-56
7.46919e-55
-2.96916e-55
9.87559e-54
-4.11396e-54
1.27174e-52
-5.56215e-53
1.59449e-51
-7.33485e-52
1.94216e-50
-9.41849e-51
2.29814e-49
-1.1773e-49
2.6333e-48
-1.42918e-48
2.92394e-47
-1.68505e-47
3.13048e-46
-1.92265e-46
3.23903e-45
-2.12421e-45
3.21209e-44
-2.25736e-44
3.07019e-43
-2.30562e-43
2.78676e-42
-2.21971e-42
2.43309e-41
-1.97056e-41
1.98364e-40
-1.44476e-40
1.55346e-39
-5.58362e-40
1.09021e-38
8.55621e-39
7.30491e-38
2.7081e-37
3.79924e-37
4.69055e-36
1.84339e-36
5.91622e-35
5.66656e-34
4.97707e-42
-4.0225e-41
-6.00855e-42
-1.01757e-41
-1.50678e-42
-1.7007e-42
-2.72965e-43
-1.41282e-43
-2.81725e-44
1.13384e-44
-2.8502e-46
6.52695e-45
6.13609e-46
1.61494e-45
1.80788e-46
2.89468e-46
3.47454e-47
4.51098e-47
5.61083e-48
6.19816e-48
7.903e-49
7.86663e-49
1.01943e-49
9.23526e-50
1.21233e-50
1.02298e-50
1.35545e-51
1.06984e-51
1.42871e-52
1.06987e-52
1.43755e-53
1.04523e-53
1.40094e-54
1.02316e-54
1.35106e-55
1.07444e-55
1.34597e-56
1.22841e-56
7.48688e-58
1.56115e-57
-9.7726e-57
2.06759e-58
-1.41139e-55
4.58322e-59
-1.95897e-54
2.83529e-58
-2.65315e-53
4.13683e-57
-3.50507e-52
5.97979e-56
-4.50965e-51
8.44732e-55
-5.6486e-50
1.16636e-53
-6.87286e-49
1.5706e-52
-8.1229e-48
2.0644e-51
-9.29544e-47
2.64074e-50
-1.03062e-45
3.29601e-49
-1.10165e-44
4.00484e-48
-1.13774e-43
4.78998e-47
-1.12599e-42
5.70936e-46
-1.07367e-41
7.13989e-45
-9.72011e-41
9.95357e-44
-8.45914e-40
1.64275e-42
-6.87272e-39
3.06383e-41
-5.35767e-38
5.91724e-40
-3.74224e-37
1.0802e-38
-2.48955e-36
1.76833e-37
-1.286e-35
2.47872e-36
-6.14906e-35
2.85598e-35
2.54532e-34
5.54199e-43
-4.55272e-42
-6.47852e-43
-1.19572e-42
-1.69038e-43
-2.32529e-43
-3.41153e-44
-2.62094e-44
-4.25907e-45
-8.44539e-46
-2.91189e-46
4.03856e-46
2.31304e-47
1.35894e-46
1.3141e-47
2.70863e-47
2.92428e-48
4.47745e-48
5.06705e-49
6.39072e-49
7.44446e-50
8.33532e-50
9.88393e-51
9.98993e-51
1.20052e-51
1.12471e-51
1.36423e-52
1.19198e-52
1.45677e-53
1.20405e-53
1.48015e-54
1.17509e-54
1.44633e-55
1.12185e-55
1.38198e-56
1.11779e-56
1.29711e-57
1.88385e-57
-3.7379e-58
3.85382e-58
-7.28797e-57
1.42755e-58
-1.03586e-55
7.93102e-58
-1.43593e-54
1.12548e-56
-1.94241e-53
1.59632e-55
-2.56272e-52
2.21285e-54
-3.29252e-51
2.99342e-53
-4.1176e-50
3.94981e-52
-5.00152e-49
5.0752e-51
-5.89997e-48
6.34868e-50
-6.73768e-47
7.71348e-49
-7.45276e-46
9.10368e-48
-7.94591e-45
1.04012e-46
-8.18168e-44
1.15165e-45
-8.07063e-43
1.22925e-44
-7.66517e-42
1.26928e-43
-6.90934e-41
1.2583e-42
-5.97995e-40
1.2108e-41
-4.82951e-39
1.12274e-40
-3.73388e-38
1.03673e-39
-2.58542e-37
9.48665e-39
-1.69589e-36
9.02023e-38
-8.63937e-36
8.32221e-37
-4.00035e-35
7.3015e-36
-3.28384e-35
4.98373e-35
2.35076e-34
3.94257e-44
-1.95074e-42
-4.53462e-44
-5.25384e-43
-1.20937e-44
-1.1446e-43
-2.5495e-45
-1.52706e-44
-3.39012e-46
-1.27534e-45
-2.87503e-47
1.72534e-47
2.91878e-49
3.43519e-47
7.33941e-49
8.41273e-48
1.82154e-49
1.52224e-48
3.29918e-50
2.28707e-49
4.96835e-51
3.08668e-50
6.70434e-52
3.79105e-51
8.23857e-53
4.3481e-52
9.4448e-54
4.67503e-53
1.01565e-54
4.75802e-54
1.0382e-55
4.55798e-55
1.03255e-56
3.06339e-56
1.10087e-57
3.66625e-57
5.77647e-59
1.17795e-56
-1.90701e-58
3.99297e-57
-2.01231e-57
1.21887e-57
-2.81826e-56
7.11141e-58
-3.8938e-55
6.70033e-57
-5.2494e-54
9.42408e-56
-6.89981e-53
1.30404e-54
-8.82815e-52
1.76076e-53
-1.09894e-50
2.3186e-52
-1.32803e-49
2.97266e-51
-1.55752e-48
3.7095e-50
-1.76721e-47
4.49495e-49
-1.94024e-46
5.28918e-48
-2.05142e-45
6.02306e-47
-2.09157e-44
6.64323e-46
-2.04033e-43
7.05919e-45
-1.91172e-42
7.24616e-44
-1.69682e-41
7.12318e-43
-1.43997e-40
6.75371e-42
-1.13712e-39
6.08862e-41
-8.52678e-39
5.31549e-40
-5.70425e-38
4.38233e-39
-3.54852e-37
3.54723e-38
-1.70737e-36
2.63729e-37
-6.97551e-36
1.88591e-36
-5.57402e-36
1.0344e-35
4.55473e-35
-1.73684e-43
-1.39359e-41
1.96229e-43
-3.67494e-42
5.33398e-44
-7.29535e-43
1.17573e-44
-8.55612e-44
1.67084e-45
-3.95918e-45
1.71841e-46
9.70863e-46
7.33236e-48
3.69675e-46
-1.77845e-48
7.58935e-47
-5.88413e-49
1.27197e-47
-1.16295e-49
1.82955e-48
-1.82727e-50
2.39833e-49
-2.5303e-51
2.88444e-50
-3.16398e-52
3.25583e-51
-3.67372e-53
3.45557e-52
-3.98833e-54
3.46719e-53
-4.09163e-55
3.22175e-54
-3.76337e-56
1.0887e-55
-1.65221e-57
2.2898e-56
-7.72325e-58
1.80893e-55
-1.08031e-57
6.18169e-56
-8.2832e-58
1.8437e-56
-6.75487e-57
4.02962e-57
-9.18151e-56
2.54168e-57
-1.23512e-54
2.55606e-56
-1.61971e-53
3.51059e-55
-2.06679e-52
4.72479e-54
-2.5646e-51
6.19947e-53
-3.08773e-50
7.91685e-52
-3.60546e-49
9.835e-51
-4.06991e-48
1.18581e-49
-4.4413e-47
1.38739e-48
-4.66216e-46
1.5698e-47
-4.7126e-45
1.71858e-46
-4.54994e-44
1.81081e-45
-4.20976e-43
1.83998e-44
-3.67932e-42
1.78736e-43
-3.06303e-41
1.66878e-42
-2.36124e-40
1.47506e-41
-1.71821e-39
1.25093e-40
-1.10642e-38
9.89e-40
-6.58202e-38
7.50885e-39
-2.99378e-37
5.11142e-38
-1.16071e-36
3.28021e-37
-9.17612e-37
1.59264e-36
6.35236e-36
-1.74712e-42
-1.27062e-40
2.03243e-42
-3.23889e-41
5.34226e-43
-5.62923e-42
1.09851e-43
-5.19812e-43
1.41786e-44
1.79018e-44
1.11034e-45
1.73091e-44
-3.56086e-47
4.54715e-45
-3.49894e-47
8.33238e-46
-8.24923e-48
1.31436e-46
-1.46262e-48
1.8195e-47
-2.17516e-49
2.32139e-48
-2.91025e-50
2.73563e-49
-3.5535e-51
3.03908e-50
-4.05395e-52
3.18278e-51
-4.34095e-53
3.14438e-52
-4.40044e-54
2.82186e-53
-3.8879e-55
-2.92997e-55
-6.29755e-57
1.74402e-55
-1.05055e-56
2.74342e-54
-1.65713e-56
9.37405e-55
-5.75677e-57
2.79171e-55
-2.79473e-57
5.90449e-56
-1.66199e-56
1.15946e-56
-2.18598e-55
7.63683e-57
-2.85792e-54
8.05608e-56
-3.63542e-53
1.07869e-54
-4.49498e-52
1.41216e-53
-5.39007e-51
1.79866e-52
-6.26466e-50
2.22757e-51
-7.03442e-49
2.67616e-50
-7.62928e-48
3.1178e-49
-7.95251e-47
3.51028e-48
-7.97189e-46
3.82029e-47
-7.62286e-45
3.99739e-46
-6.97106e-44
4.02759e-45
-6.0095e-43
3.87279e-44
-4.91792e-42
3.56974e-43
-3.71405e-41
3.10425e-42
-2.63274e-40
2.57517e-41
-1.64283e-39
1.97489e-40
-9.39382e-39
1.43697e-39
-4.08385e-38
9.21879e-39
-1.50145e-37
5.51653e-38
-1.16727e-37
2.45755e-37
9.39828e-37
-1.57899e-41
-1.05553e-39
1.89475e-41
-2.61094e-40
4.79591e-42
-3.6977e-41
8.94178e-43
-1.83214e-42
9.8419e-44
6.5563e-43
3.1941e-45
2.21267e-43
-1.50757e-45
4.82629e-44
-4.98425e-46
8.14773e-45
-9.90028e-47
1.22223e-45
-1.62493e-47
1.63528e-46
-2.31063e-48
2.03445e-47
-2.99967e-49
2.35143e-48
-3.58355e-50
2.57222e-49
-4.02066e-51
2.65763e-50
-4.24804e-52
2.57271e-51
-4.25179e-53
2.16681e-52
-3.49826e-54
-2.31653e-53
1.42692e-55
9.30223e-55
-1.42703e-55
4.06909e-53
-2.56567e-55
1.38757e-53
-8.80372e-56
4.12494e-54
-2.51861e-56
8.69555e-55
-7.78953e-57
1.64524e-55
-3.50069e-56
2.77874e-56
-4.43965e-55
2.11006e-56
-5.62797e-54
2.31602e-55
-6.93391e-53
3.03169e-54
-8.28065e-52
3.86987e-53
-9.57922e-51
4.80232e-52
-1.06979e-49
5.78183e-51
-1.15305e-48
6.74811e-50
-1.19315e-47
7.61333e-49
-1.18603e-46
8.29744e-48
-1.12276e-45
8.69908e-47
-1.01486e-44
8.77092e-46
-8.62408e-44
8.4489e-45
-6.94074e-43
7.78157e-44
-5.1301e-42
6.7767e-43
-3.54792e-41
5.5976e-42
-2.13968e-40
4.2961e-41
-1.18039e-39
3.08802e-40
-4.83621e-39
1.98898e-39
-1.69857e-38
1.1657e-38
-7.95294e-39
5.51531e-38
2.14308e-37
-1.40629e-40
-8.71509e-39
1.7046e-40
-2.03767e-39
4.08779e-41
-2.08794e-40
6.65336e-42
7.01445e-42
5.40894e-43
9.42334e-42
-4.06833e-44
2.36571e-42
-2.44433e-44
4.60258e-43
-6.00299e-45
7.29566e-44
-1.0757e-45
1.04897e-44
-1.66848e-46
1.36097e-45
-2.28761e-47
1.65394e-46
-2.89345e-48
1.87631e-47
-3.38917e-49
2.02168e-48
-3.74416e-50
2.05886e-49
-3.90507e-51
1.93286e-50
-3.85411e-52
1.42533e-51
-2.77976e-53
-4.92835e-52
4.53934e-54
-2.8771e-55
-1.96858e-54
5.88512e-52
-3.88718e-54
1.9999e-52
-1.33309e-54
5.93051e-53
-3.78116e-55
1.24614e-53
-7.89718e-56
2.35129e-54
-1.14797e-56
3.8006e-55
4.32659e-56
7.57383e-56
6.20337e-55
2.7738e-55
8.19817e-54
3.61463e-54
1.05253e-52
4.71544e-53
1.30799e-51
5.98616e-52
1.57631e-50
7.38799e-51
1.83073e-49
8.84532e-50
2.05638e-48
1.02674e-48
2.21228e-47
1.15188e-47
2.29462e-46
1.24876e-46
2.25849e-45
1.30188e-45
2.13556e-44
1.30631e-44
1.8878e-43
1.25146e-43
1.59691e-42
1.14844e-42
1.22934e-41
9.95115e-42
9.01572e-41
8.21617e-41
5.68017e-40
6.28173e-40
3.38271e-39
4.54822e-39
1.46535e-38
2.91255e-38
5.82728e-38
1.73316e-37
7.71107e-37
-1.15256e-39
-6.13959e-38
1.33558e-39
-1.3782e-38
2.99995e-40
-6.72649e-40
3.84849e-41
2.34818e-40
8.36747e-43
9.94115e-41
-1.0107e-42
2.1009e-41
-3.01136e-43
3.72771e-42
-6.26191e-44
5.57938e-43
-1.03791e-44
7.69658e-44
-1.53379e-45
9.68323e-45
-2.03418e-46
1.14887e-45
-2.51016e-47
1.27867e-46
-2.88462e-48
1.3563e-47
-3.13861e-49
1.35722e-48
-3.23057e-50
1.19698e-49
-3.13217e-51
5.67098e-51
-1.63587e-52
-8.26823e-51
9.04007e-53
-1.16884e-52
-2.73417e-53
8.3009e-51
-5.75775e-53
2.80771e-51
-1.97041e-53
8.2996e-52
-5.57765e-54
1.73742e-52
-1.16155e-54
3.26927e-53
-1.67578e-55
5.25601e-54
6.22689e-55
8.49461e-55
8.59732e-54
1.11561e-54
1.09501e-52
1.36312e-53
1.35496e-51
1.7873e-52
1.6261e-50
2.2831e-51
1.89169e-49
2.83737e-50
2.12624e-48
3.42266e-49
2.30867e-47
4.00683e-48
2.40944e-46
4.53691e-47
2.41877e-45
4.97122e-46
2.31645e-44
5.24359e-45
2.12231e-43
5.33504e-44
1.83325e-42
5.19087e-43
1.50399e-41
4.8565e-42
1.13889e-40
4.30428e-41
8.10064e-40
3.66354e-40
5.07306e-39
2.91114e-39
2.91378e-38
2.22557e-38
1.27203e-37
1.52923e-37
4.69638e-37
9.91514e-37
4.87086e-36
-1.02038e-38
-4.60045e-37
9.58463e-39
-9.20866e-38
1.89089e-39
1.20218e-39
1.36208e-40
2.83505e-39
-2.70082e-41
8.74688e-40
-1.37264e-41
1.65027e-40
-3.16347e-42
2.72622e-41
-5.90457e-43
3.87978e-42
-9.20653e-44