/*--------------------------------*- C++ -*----------------------------------*\
| =========                 |                                                 |
| \\      /  F ield         | OpenFOAM: The Open Source CFD Toolbox           |
|  \\    /   O peration     | Version:  2.4.0                                 |
|   \\  /    A nd           | Web:      www.OpenFOAM.org                      |
|    \\/     M anipulation  |                                                 |
\*---------------------------------------------------------------------------*/
FoamFile
{
    version     2.0;
    format      ascii;
    class       surfaceScalarField;
    location    "0.2";
    object      phi;
}
// * * * * * * * * * * * * * * * * * * * * * * * * * * * * * * * * * * * * * //

dimensions      [0 3 -1 0 0 0 0];

internalField   nonuniform List<scalar> 
3781
(
4.3164e-40
3.06814e-42
3.0459e-39
3.00985e-41
4.08032e-39
6.00941e-40
2.65037e-37
5.46394e-40
1.92552e-42
-1.1806e-39
-2.65014e-37
-1.18046e-39
-3.62854e-39
5.49563e-40
4.32933e-40
6.34079e-40
6.71785e-39
6.61296e-40
2.6955e-37
1.15354e-39
2.68535e-37
-6.00798e-40
-2.57457e-37
-1.727e-39
3.49954e-39
5.46394e-40
2.6549e-37
1.14733e-39
4.10291e-39
-5.49573e-40
3.04787e-39
-6.01093e-40
4.31095e-40
-3.01118e-41
2.06793e-41
-3.02716e-42
1.83888e-42
-1.41981e-43
8.66478e-44
-9.99238e-45
5.83587e-45
-4.45437e-46
2.60641e-46
-2.52952e-47
1.44641e-47
-1.05919e-48
1.20864e-48
-4.92839e-50
1.44917e-47
4.93694e-50
2.61216e-46
1.06111e-48
5.8497e-45
2.53444e-47
8.6894e-44
4.46445e-46
1.84445e-42
1.00166e-44
2.07601e-41
1.42401e-43
4.32847e-40
3.0367e-42
3.0667e-39
3.02438e-41
4.51316e-39
6.03977e-40
2.68104e-37
5.76637e-40
4.51316e-39
-5.76637e-40
3.0667e-39
-6.03977e-40
4.32847e-40
-3.02438e-41
2.07601e-41
-3.0367e-42
1.84445e-42
-1.42401e-43
8.6894e-44
-1.00166e-44
5.84968e-45
-4.46499e-46
2.61066e-46
-2.60131e-47
1.25014e-47
-1.24653e-47
-8.28081e-47
3.51853e-41
-3.01474e-42
2.68108e-40
-3.36137e-41
4.50511e-39
-6.63988e-40
8.3379e-39
-6.02853e-40
1.73932e-43
1.30388e-39
-8.33581e-39
1.30373e-39
-4.46803e-39
-6.06272e-40
3.53363e-41
-7.00888e-40
4.74015e-39
-7.31394e-40
1.28783e-38
-1.27354e-39
8.64309e-39
6.63836e-40
-3.52742e-39
1.90673e-39
3.05365e-40
-6.02853e-40
8.37514e-39
-1.26684e-39
4.5072e-39
6.06283e-40
2.68288e-40
6.64151e-40
3.51708e-41
3.36325e-41
1.91639e-42
3.26769e-42
1.65535e-43
1.52335e-43
8.37833e-45
1.05017e-44
5.57997e-46
4.64992e-46
2.61214e-47
2.60854e-47
1.44507e-48
1.08628e-48
1.24923e-49
5.0164e-50
1.44793e-48
-5.02502e-50
2.61808e-47
-1.08823e-48
5.59377e-46
-2.61355e-47
8.403e-45
-4.66026e-46
1.66067e-43
-1.05267e-44
1.9242e-42
-1.52774e-43
3.53279e-41
-3.27773e-42
2.70037e-40
-3.37743e-41
4.54044e-39
-6.67266e-40
8.60793e-39
-6.36627e-40
4.54044e-39
6.36627e-40
2.70037e-40
6.67266e-40
3.53279e-41
3.37743e-41
1.92421e-42
3.27773e-42
1.66067e-43
1.52774e-43
8.40298e-45
1.05267e-44
5.59007e-46
4.65193e-46
2.33063e-47
1.57065e-47
-3.66795e-47
-1.78006e-46
-1.3077e-45
4.38187e-42
-2.86815e-43
1.83545e-41
-3.2246e-42
1.96816e-40
-5.39846e-41
3.54849e-40
-4.81157e-41
2.83305e-44
1.05654e-40
-3.54555e-40
1.05639e-40
-1.92186e-40
-4.84445e-41
4.39174e-42
-5.75241e-41
2.11101e-40
-6.04523e-41
5.56055e-40
-1.02743e-40
3.77832e-40
5.39688e-41
-1.35021e-40
1.5377e-40
2.30115e-41
-4.81157e-41
3.59505e-40
-1.021e-40
1.9711e-40
4.84456e-41
1.83828e-41
5.40015e-41
4.36483e-42
3.2265e-42
2.65598e-43
3.13081e-43
2.69087e-44
1.5792e-44
1.42108e-45
1.08599e-45
1.0071e-46
5.04939e-47
4.7983e-48
2.83271e-48
2.72567e-49
1.22026e-49
2.36965e-50
5.63934e-51
2.73113e-49
-5.6493e-51
4.80956e-48
-1.22251e-49
1.0097e-46
-2.83835e-48
1.4256e-45
-5.061e-47
2.70046e-44
-1.0887e-45
2.66918e-43
-1.58396e-44
4.39031e-42
-3.14116e-43
1.86213e-41
-3.2412e-42
2.01207e-40
-5.42987e-41
3.73469e-40
-5.13568e-41
2.01207e-40
5.13568e-41
1.86213e-41
5.42987e-41
4.39031e-42
3.2412e-42
2.66918e-43
3.14116e-43
2.70045e-44
1.58396e-44
1.42521e-45
1.08804e-45
9.44524e-47
3.75693e-47
-4.58955e-47
-1.60778e-46
-6.8489e-46
-2.86401e-45
-2.10703e-44
2.98388e-43
-4.56134e-44
9.20847e-43
-4.35206e-43
6.58816e-42
-7.05035e-42
1.15132e-41
-6.26849e-42
2.22192e-45
1.3804e-41
-1.14911e-41
1.38016e-41
-6.27137e-42
-6.31873e-42
2.98969e-43
-7.53327e-42
7.23436e-42
-7.92314e-42
1.84002e-41
-1.34169e-41
1.27507e-41
7.0477e-42
-3.6854e-42
2.00725e-41
1.23968e-42
-6.26848e-42
1.1832e-41
-1.33187e-41
6.61029e-42
6.31891e-42
9.23038e-43
7.05287e-42
2.96865e-43
4.35323e-43
1.99237e-44
4.77617e-44
2.10479e-45
2.49125e-45
1.17091e-46
1.811e-46
8.41575e-48
8.56448e-48
4.14319e-49
4.92109e-49
2.36971e-50
2.13391e-50
2.10643e-51
9.9499e-52
2.37458e-50
-9.96751e-52
4.1532e-49
-2.13788e-50
8.43834e-48
-4.93103e-49
1.17482e-46
-8.58478e-48
2.11279e-45
-1.81571e-46
2.00323e-44
-2.49932e-45
2.98852e-43
-4.79342e-44
9.4084e-43
-4.37632e-43
6.887e-42
-7.09813e-42
1.2454e-41
-6.70611e-42
6.887e-42
6.7061e-42
9.4084e-43
7.09813e-42
2.98852e-43
4.37632e-43
2.00323e-44
4.79342e-44
2.11232e-45
2.4988e-45
1.11435e-46
1.72921e-46
-9.32961e-47
-1.6412e-46
-7.95593e-46
-2.17947e-45
-1.08504e-44
-3.85225e-44
-2.8865e-43
2.62084e-44
-3.03279e-44
5.72409e-44
-3.73211e-44
1.5475e-43
-5.0727e-43
2.34304e-43
-4.44779e-43
2.17549e-46
9.86769e-43
-2.32253e-43
9.86582e-43
-1.26822e-43
-4.48612e-43
2.62927e-44
-5.42004e-43
1.87874e-43
-5.71944e-43
4.15314e-43
-9.57076e-43
3.19369e-43
5.04433e-43
5.72638e-45
1.43139e-42
8.52879e-44
-4.44596e-43
2.62405e-43
-9.49237e-43
1.5678e-43
4.48628e-43
5.73876e-44
5.04867e-43
2.60873e-44
3.35548e-44
1.8273e-45
3.80781e-45
2.05453e-46
2.08772e-46
1.16542e-47
1.53927e-47
8.58394e-49
7.51736e-49
4.26528e-50
4.34789e-50
2.46281e-51
1.92645e-51
2.1963e-52
9.00817e-53
2.4679e-51
-9.0244e-53
4.27572e-50
-1.93009e-51
8.60741e-49
-4.3569e-50
1.16944e-47
-7.53569e-49
2.06269e-46
-1.54342e-47
1.83809e-45
-2.0948e-46
2.6281e-44
-3.82245e-45
5.90077e-44
-3.37481e-44
1.81016e-43
-5.08464e-43
2.93294e-43
-4.78344e-43
1.81016e-43
4.78344e-43
5.90077e-44
5.08464e-43
2.6281e-44
3.3748e-44
1.83772e-45
3.82213e-45
1.98899e-46
2.02483e-46
-8.32768e-47
-1.01803e-46
-1.62756e-45
-2.38657e-45
-1.28401e-44
-3.03885e-44
-1.79878e-43
-5.53319e-43
-4.23301e-42
5.35571e-46
-4.05699e-43
4.2648e-45
-5.58226e-44
1.92237e-45
-8.05583e-44
1.59075e-46
-4.18653e-44
2.20289e-47
8.7328e-44
7.33945e-47
8.75883e-44
1.06449e-46
-3.97942e-44
1.70625e-45
-4.81975e-44
3.35075e-45
-5.08855e-44
3.48275e-45
-8.49592e-44
5.07473e-45
4.47813e-44
6.66552e-45
1.27035e-43
5.0226e-45
-3.94095e-44
1.89724e-45
-8.4211e-44
1.84994e-45
3.97945e-44
3.20706e-45
4.48235e-44
1.69191e-45
3.03263e-45
1.24662e-46
3.6326e-46
1.43394e-47
2.0272e-47
8.39102e-49
1.53038e-48
6.23663e-50
7.54675e-50
3.16238e-51
4.40526e-51
1.83319e-52
1.95965e-52
1.65673e-53
9.18104e-54
1.83703e-52
-9.19753e-54
3.17025e-51
-1.96337e-52
6.25409e-50
-4.41444e-51
8.42081e-49
-7.56539e-50
1.43986e-47
-1.53459e-48
1.25438e-46
-2.0343e-47
1.7054e-45
-3.64714e-46
3.31726e-45
-3.05137e-45
3.4155e-45
-4.51663e-44
3.38366e-45
-4.24608e-44
3.4155e-45
4.24608e-44
3.31724e-45
4.51663e-44
1.70511e-45
3.05121e-45
1.20558e-46
3.61521e-46
-8.21139e-47
-5.16864e-47
-1.25047e-45
-1.21197e-45
-2.16452e-44
-2.49129e-44
-1.73651e-43
-3.2269e-43
-2.45925e-42
-5.96444e-42
-4.78242e-41
-1.58021e-44
-4.8435e-42
1.56835e-44
-7.42636e-43
3.2622e-45
-5.46525e-43
1.03682e-45
-3.86226e-44
1.11338e-46
1.46631e-45
4.95535e-46
5.53311e-45
2.72639e-46
-2.62942e-45
1.24886e-46
-3.18943e-45
-3.57641e-47
-3.37306e-45
-4.86397e-46
-5.59132e-45
-1.2299e-46
2.95296e-45
6.83851e-46
8.35853e-45
3.50444e-46
-2.58433e-45
-3.38249e-46
-5.53874e-45
-1.2845e-46
2.6114e-45
2.17512e-46
2.95601e-45
1.23737e-46
2.08619e-46
9.27361e-48
2.54993e-47
1.09234e-48
1.46687e-48
6.45984e-50
1.11695e-49
4.84686e-51
5.61949e-51
2.47105e-52
3.29155e-52
1.43576e-53
1.48349e-53
1.29971e-54
6.95389e-55
1.43877e-53
-6.96649e-55
2.47723e-52
-1.48633e-53
4.86053e-51
-3.2985e-52
6.48311e-50
-5.6336e-51
1.09694e-48
-1.1201e-49
9.33334e-48
-1.47216e-48
1.24765e-46
-2.56054e-47
2.25684e-46
-2.09974e-46
-1.41154e-47
-2.98003e-45
-2.46663e-46
-2.79429e-45
-1.4124e-47
2.79429e-45
2.2551e-46
2.97996e-45
1.2086e-46
2.08217e-46
-5.70334e-47
-1.00512e-47
-1.33804e-45
-8.19899e-46
-1.75156e-44
-1.3958e-44
-3.12255e-43
-2.95872e-43
-2.55402e-42
-3.90641e-42
-3.77547e-41
-7.59677e-41
-6.40237e-40
-2.0019e-43
-6.71332e-41
2.53054e-43
-8.62073e-42
4.77629e-44
-5.98721e-42
2.02605e-44
-3.90438e-43
1.46031e-45
-4.4204e-44
2.04323e-46
-2.027e-45
3.07816e-47
-3.71283e-46
8.27927e-48
-2.40792e-46
-7.0635e-48
-2.45948e-46
-4.21775e-47
-4.06108e-46
-1.5949e-47
2.14524e-46
4.46016e-47
6.06985e-46
2.08597e-47
-1.87491e-46
-2.86079e-47
-4.02127e-46
-1.23449e-47
1.8953e-46
1.28005e-47
2.14757e-46
7.48712e-48
1.5346e-47
5.77213e-49
1.91944e-48
6.86434e-50
1.11598e-49
4.13781e-51
8.57693e-51
3.11554e-52
4.3409e-52
1.60824e-53
2.54824e-53
9.34892e-55
1.151e-54
8.52766e-56
5.38646e-56
9.36864e-55
-5.39617e-56
1.61229e-53
-1.1532e-54
3.12444e-52
-2.55363e-53
4.15296e-51
-4.35184e-52
6.89388e-50
-8.60126e-51
5.81037e-49
-1.12007e-49
7.5516e-48
-1.92758e-48
1.33084e-47
-1.5449e-47
-5.44341e-48
-2.16564e-46
-2.34356e-47
-2.0294e-46
-5.52929e-48
2.02919e-46
1.15561e-47
2.16105e-46
-3.17753e-47
3.97416e-48
-6.71515e-46
-2.31877e-46
-1.366e-44
-5.4135e-45
-1.8173e-43
-9.33534e-44
-3.28499e-42
-2.00686e-42
-2.80137e-41
-2.76873e-41
-4.20206e-40
-5.57543e-40
-5.37922e-39
-9.08582e-43
-6.27442e-40
3.76464e-42
-1.09994e-40
7.4194e-43
-8.62912e-41
3.11284e-43
-5.28192e-42
2.15329e-44
-5.8678e-43
2.43222e-45
-3.06949e-44
1.39014e-46
-2.26055e-45
1.06476e-47
-1.20744e-46
-5.1816e-50
-2.10895e-47
-2.91887e-48
-2.4875e-47
-1.19327e-48
1.30049e-47
2.8947e-48
3.67768e-47
1.31376e-48
-1.13342e-47
-1.98832e-48
-2.43592e-47
-8.81173e-49
1.14626e-47
8.02896e-49
1.30327e-47
4.74265e-49
9.56719e-49
3.69287e-50
1.2073e-49
4.42979e-51
7.15512e-51
2.68803e-52
5.51552e-52
2.02832e-53
2.82649e-53
1.05035e-54
1.65924e-54
6.09622e-56
7.55157e-56
5.56276e-57
3.52742e-57
6.10904e-56
-3.53379e-57
1.053e-54
-7.56603e-56
2.03412e-53
-1.66277e-54
2.69792e-52
-2.83367e-53
4.44901e-51
-5.53136e-52
3.7177e-50
-7.18172e-51
4.78422e-49
-1.21253e-49
8.35293e-49
-9.63327e-49
-4.46033e-49
-1.31465e-47
-1.70736e-48
-1.23035e-47
-1.41127e-48
1.21333e-47
-1.89628e-47
9.30632e-48
-4.53685e-46
-9.72821e-47
-7.83412e-45
-2.01796e-45
-1.64491e-43
-4.83592e-44
-2.22792e-42
-8.46136e-43
-4.2332e-41
-1.92108e-41
-3.74991e-40
-2.75922e-40
-6.05905e-39
-6.14988e-39
-6.75864e-38
3.59155e-41
-8.1791e-39
7.66102e-41
-9.36194e-40
9.84464e-42
-6.44627e-40
3.35172e-42
-3.83831e-41
2.24741e-43
-3.85028e-42
2.42732e-44
-1.96331e-43
1.35518e-45
-1.37582e-44
9.85181e-47
-6.45187e-46
4.83007e-48
-3.7536e-47
1.11079e-49
-3.36352e-48
-5.67059e-50
8.70067e-49
1.62388e-49
2.66882e-48
7.29197e-50
-8.22926e-49
-1.13053e-49
-1.76948e-48
-5.0527e-50
8.32297e-49
4.44272e-50
9.47261e-49
2.63939e-50
7.01748e-50
2.09319e-51
8.92942e-51
2.51779e-52
5.32787e-52
1.54688e-53
4.11442e-53
1.16684e-54
2.11569e-54
6.08869e-56
1.23977e-55
3.52636e-57
5.64598e-57
3.23069e-58
2.62727e-58
3.53376e-57
-2.63199e-58
6.104e-56
-5.65675e-57
1.17018e-54
-1.2424e-55
1.55256e-53
-2.12107e-54
2.52867e-52
-4.12628e-53
2.10697e-51
-5.34787e-52
2.66154e-50
-8.96871e-51
4.5885e-50
-7.0674e-50
-3.64978e-50
-9.55881e-49
-3.3498e-49
-8.99396e-49
-5.99074e-48
7.29772e-49
-1.2266e-46
-2.8755e-48
-2.82613e-45
-9.88889e-47
-4.95172e-44
-2.0398e-45
-1.05198e-42
-4.98421e-44
-1.48196e-41
-9.05608e-43
-2.88546e-40
-2.27144e-41
-2.80688e-39
-4.45453e-40
-4.64495e-38
-1.3755e-38
-3.14811e-37
3.41035e-39
-8.0369e-38
2.6779e-39
-1.89645e-38
2.95129e-40
-1.64227e-38
8.7521e-41
-8.52551e-40
5.42464e-42
-8.36619e-41
5.70794e-43
-3.97201e-42
3.03828e-44
-2.7554e-43
2.18298e-45
-1.23514e-44
1.04412e-46
-6.95301e-46
5.94286e-48
-2.92617e-47
2.55224e-49
-1.37317e-48
2.24339e-50
3.68905e-50
4.95453e-51
-3.06251e-50
-6.94143e-51
-6.09959e-50
-3.11858e-51
2.86201e-50
2.71223e-51
3.2645e-50
1.61367e-51
2.46081e-51
1.28413e-52
3.16747e-52
1.54451e-53
1.9158e-53
9.5005e-55
1.48784e-54
7.1403e-56
7.72265e-56
3.72118e-57
4.53489e-57
2.14264e-58
2.07714e-58
1.95572e-59
9.66257e-60
2.14469e-58
-9.67932e-60
3.72237e-57
-2.0809e-58
7.13358e-56
-4.54381e-57
9.45096e-55
-7.73991e-56
1.52476e-53
-1.49134e-54
1.21671e-52
-1.92049e-53
1.40468e-51
-3.17363e-52
-3.03033e-51
-2.45563e-51
-1.62094e-49
-3.22834e-50
-3.78758e-48
-1.3465e-50
-9.67345e-47
4.95664e-49
-2.01055e-45
1.10236e-47
-4.8037e-44
2.73641e-46
-8.54241e-43
5.62622e-45
-1.91449e-41
1.22335e-43
-2.76473e-40
1.49678e-42
-5.85865e-39
-1.16808e-41
-5.98141e-38
-3.09602e-39
-1.15809e-36
-1.77761e-37
-7.3934e-36
1.83813e-37
-1.08303e-37
1.15984e-37
-8.16746e-38
7.13582e-39
-1.73267e-38
1.02427e-39
-8.42258e-40
5.70567e-41
-8.00078e-41
5.11585e-42
-3.76844e-42
2.62187e-43
-2.61076e-43
1.77606e-44
-1.16759e-44
8.37169e-46
-6.57321e-46
4.65793e-47
-2.75686e-47
2.02246e-48
-1.326e-48
9.7087e-50
-4.84838e-50
4.02327e-51
-3.27642e-51
-5.64829e-53
-2.38663e-51
-9.29888e-53
1.0801e-51
8.60511e-53
1.2363e-51
5.1191e-53
9.36301e-53
4.12434e-54
1.1983e-53
4.97808e-55
7.25771e-55
3.08868e-56
5.59241e-56
2.32229e-57
2.89804e-57
1.21649e-58
1.68673e-58
6.99243e-60
7.69518e-60
6.4138e-61
3.54686e-61
7.06103e-60
-3.54769e-61
1.23766e-58
-7.69061e-60
2.38871e-57
-1.68356e-58
3.28621e-56
-2.88284e-57
5.57356e-55
-5.53407e-56
5.80002e-54
-7.05302e-55
9.90045e-53
-1.13187e-53
1.3327e-51
-7.36783e-53
3.31819e-50
-6.52277e-52
7.87166e-49
1.44753e-50
1.95198e-47
4.21598e-49
4.09532e-46
9.95421e-48
9.39922e-45
2.4798e-46
1.69626e-43
5.11612e-45
3.60578e-42
1.11994e-43
5.32045e-41
1.43622e-42
1.04931e-39
-5.58257e-42
1.10671e-38
-2.52503e-39
1.92633e-37
-1.48091e-37
-6.24501e-36
1.31679e-35
-6.82386e-36
2.18154e-37
-1.12374e-37
1.62844e-37
1.24696e-38
2.34869e-38
7.49416e-40
1.162e-39
7.89702e-41
1.04269e-40
3.77215e-42
5.00741e-42
2.62402e-43
3.3889e-43
1.17391e-44
1.53272e-44
6.6058e-46
8.51334e-46
2.76933e-47
3.59231e-47
1.33278e-48
1.71496e-48
5.22789e-50
6.73739e-50
2.1792e-51
2.83624e-51
6.40397e-54
1.007e-52
3.80268e-53
6.87068e-54
4.00632e-53
1.87365e-54
3.06974e-54
1.45016e-55
3.92777e-55
1.69893e-56
2.39945e-56
1.04919e-57
1.84556e-57
7.80812e-59
9.61051e-59
4.07626e-60
5.57535e-60
2.32745e-61
2.54815e-61
4.01694e-62
1.16772e-62
9.01234e-61
-1.23352e-62
2.65444e-59
-2.7762e-61
8.18342e-58
-6.37457e-60
2.41603e-56
-1.22778e-58
7.29009e-55
-2.72553e-57
2.06753e-53
-5.13399e-56
5.91614e-52
-1.23884e-54
1.55736e-50
-2.73497e-53
4.15767e-49
-7.42277e-52
9.92458e-48
-1.84566e-50
2.45633e-46
-4.96507e-49
5.2088e-45
-1.17315e-47
1.19249e-43
-2.93185e-46
2.18591e-42
-6.01169e-45
4.63027e-41
-1.30588e-43
6.99945e-40
-1.51527e-42
1.37457e-38
1.89121e-41
1.51687e-37
3.74547e-39
2.63692e-36
2.12686e-37
8.84103e-36
2.02129e-37
-7.93804e-38
9.65975e-38
-5.09573e-38
6.23476e-39
1.45652e-38
9.2558e-40
8.13944e-40
5.2613e-41
8.28856e-41
4.79162e-42
3.95572e-42
2.4806e-43
2.74933e-43
1.69423e-44
1.23284e-44
8.03341e-46
6.9407e-46
4.49223e-47
2.91514e-47
1.95822e-48
1.40352e-48
9.40097e-50
5.5018e-50
3.78178e-51
2.33428e-51
1.60206e-52
8.28687e-53
5.87597e-54
4.44703e-54
3.16269e-55
1.46901e-54
6.04526e-56
1.08373e-55
4.55632e-57
1.34089e-56
5.2108e-58
8.15869e-58
3.22244e-59
6.20519e-59
2.38165e-60
3.22151e-60
1.24506e-61
1.85132e-61
7.04925e-63
8.42344e-63
5.42182e-64
3.67747e-64
2.88865e-63
-9.57408e-64
-2.20233e-62
-2.90596e-62
-3.32044e-60
-9.1188e-61
-1.49614e-58
-2.76007e-59
-6.08363e-57
-8.67506e-58
-1.85551e-55
-2.59107e-56
-6.41505e-54
-7.89388e-55
-1.66504e-52
-2.24079e-53
-5.3424e-51
-6.45261e-52
-1.21512e-49
-1.69086e-50
-3.68189e-48
-4.54585e-49
-7.24725e-47
-1.07537e-47
-2.08648e-45
-2.678e-46
-3.4459e-44
-5.49775e-45
-9.51709e-43
-1.18435e-43
-1.25094e-41
-1.34122e-42
-3.3643e-40
2.05724e-41
-3.03889e-39
3.5937e-39
-7.87356e-38
2.02151e-37
8.32872e-36
1.31505e-38
-6.50122e-38
-7.61689e-39
-2.63542e-39
-1.88331e-40
5.3527e-40
3.4437e-41
3.67032e-41
3.01954e-42
3.91981e-42
3.95218e-43
2.03652e-43
2.27044e-44
1.44145e-44
1.73835e-45
6.80063e-46
8.59947e-47
3.86895e-47
5.0515e-48
1.68109e-48
2.24443e-49
8.15136e-50
1.10221e-50
3.27285e-51
4.46714e-52
1.39642e-52
1.91194e-53
5.12176e-54
7.10027e-55
2.35173e-55
3.00146e-56
4.79717e-56
2.57267e-57
3.43484e-57
1.6573e-58
4.12169e-58
1.68437e-59
2.51102e-59
1.01729e-60
1.89431e-60
7.34744e-62
9.84927e-62
3.80656e-63
5.62428e-63
1.30808e-66
2.56082e-64
-7.62908e-63
2.39737e-65
-2.71865e-61
4.57866e-64
-9.14766e-60
1.66593e-62
-3.05712e-58
5.96081e-61
-9.53845e-57
2.01119e-59
-2.98832e-55
6.73473e-58
-8.58464e-54
2.10016e-56
-2.51681e-52
6.58529e-55
-6.5925e-51
1.88701e-53
-1.80574e-49
5.53722e-52
-4.25443e-48
1.44429e-50
-1.08768e-46
3.96261e-49
-2.25987e-45
9.27688e-48
-5.39601e-44
2.37987e-46
-9.59134e-43
4.9031e-45
-2.14798e-41
1.18341e-43
-3.09992e-40
2.11825e-42
-6.5632e-39
5.07085e-41
-6.69436e-38
8.88712e-40
-1.29501e-36
2.48043e-38
4.92404e-37
4.46017e-40
-8.98656e-39
-3.7628e-40
-3.51549e-40
-1.47388e-41
2.12094e-41
6.99373e-43
2.10006e-42
9.71555e-44
3.13097e-43
1.50216e-44
1.77459e-44
9.35638e-46
1.39984e-45
7.41885e-47
6.86619e-47
3.82943e-48
4.09314e-48
2.28307e-49
1.81103e-49
1.04234e-50
8.97168e-51
5.16112e-52
3.62931e-52
2.13125e-53
1.56254e-53
9.17153e-55
5.79939e-55
3.45757e-56
2.34743e-56
1.4084e-57
2.04348e-57
9.26136e-59
1.26002e-58
5.41178e-60
1.33058e-59
5.0029e-61
7.92226e-61
2.96697e-62
5.83373e-62
2.09931e-63
3.01165e-63
1.08767e-64
1.69908e-64
1.77712e-65
8.36757e-66
4.25704e-64
2.67397e-65
1.50998e-62
9.96923e-64
5.08692e-61
3.59169e-62
1.69267e-59
1.27692e-60
5.28616e-58
4.28843e-59
1.64474e-56
1.43211e-57
4.72583e-55
4.45853e-56
1.37094e-53
1.3962e-54
3.58722e-52
3.99946e-53
9.6719e-51
1.17252e-51
2.27158e-49
3.05906e-50
5.67324e-48
8.38511e-49
1.17071e-46
1.96418e-47
2.69907e-45
5.03314e-46
4.73132e-44
1.03756e-44
1.00349e-42
2.498e-43
1.40655e-41
4.45131e-42
2.7226e-40
1.04926e-40
2.60397e-39
1.75098e-39
4.27456e-38
4.6473e-38
8.40691e-37
3.69902e-41
-3.6492e-40
-3.76375e-41
-1.6529e-41
-1.65541e-42
3.65215e-43
-5.67261e-44
6.61143e-44
1.40839e-45
1.19655e-44
6.62752e-46
7.37705e-46
4.83784e-47
6.05501e-47
4.3238e-48
3.10482e-48
2.33888e-49
1.88149e-49
1.45646e-50
8.56083e-51
6.78155e-52
4.27791e-52
3.42093e-53
1.76354e-53
1.42388e-54
7.63261e-55
6.17076e-56
2.87533e-56
2.33289e-57
1.14202e-57
9.19251e-59
7.47191e-59
4.43868e-60
4.18163e-60
2.16726e-61
3.96572e-61
1.61747e-62
2.31682e-62
9.02647e-64
1.66776e-63
6.09879e-65
8.5731e-65
1.28246e-65
4.78983e-66
3.68181e-64
3.98365e-67
1.32709e-62
7.04189e-66
4.71693e-61
2.65862e-64
1.58623e-59
9.58038e-63
5.29442e-58
3.40865e-61
1.65133e-56
1.14509e-59
5.16589e-55
3.8279e-58
1.48365e-53
1.19211e-56
4.3416e-52
3.73801e-55
1.13698e-50
1.07115e-53
3.10665e-49
3.14563e-52
7.31769e-48
8.21105e-51
1.86469e-46
2.25712e-49
3.87304e-45
5.30714e-48
9.20662e-44
1.38214e-46
1.63562e-42
3.03733e-45
3.64007e-41
8.88103e-44
5.24777e-40
2.89461e-42
1.10085e-38
1.47185e-40
1.12008e-37
7.61784e-39
2.13404e-36
3.67584e-37
1.39309e-35
1.44153e-42
-3.09959e-41
-1.50017e-42
-1.38979e-42
-7.36755e-44
-5.03721e-44
-3.80864e-45
6.04416e-46
-3.42566e-47
5.18133e-46
1.95546e-47
3.72243e-47
1.66026e-48
3.45335e-48
1.59418e-49
1.85305e-49
9.03035e-51
1.17273e-50
5.74958e-52
5.44044e-52
2.74544e-53
2.76913e-53
1.39905e-54
1.15082e-54
5.91596e-56
5.0154e-56
2.57748e-57
1.8953e-57
9.84869e-59
7.40464e-59
3.85506e-60
3.56981e-60
1.67933e-61
1.69332e-61
7.51473e-63
1.2828e-62
4.85585e-64
7.05829e-64
2.57801e-65
4.82071e-65
2.13152e-66
2.436e-66
1.84533e-65
1.09975e-67
6.94436e-64
-9.35812e-67
2.50486e-62
-3.62386e-65
8.90834e-61
-1.36915e-63
2.99656e-59
-4.93239e-62
1.00088e-57
-1.7534e-60
3.1226e-56
-5.8886e-59
9.77698e-55
-1.96634e-57
2.80872e-53
-6.12186e-56
8.22806e-52
-1.9169e-54
2.15534e-50
-5.49119e-53
5.89734e-49
-1.6096e-51
1.38948e-47
-4.19913e-50
3.54706e-46
-1.15034e-48
7.36937e-45
-2.68946e-47
1.75604e-43
-6.83658e-46
3.12064e-42
-1.35508e-44
6.96886e-41
-2.81301e-43
1.00507e-39
-1.19447e-42
2.11946e-38
2.02043e-40
2.15837e-37
1.84892e-38
4.1518e-36
9.78573e-37
3.93237e-35
9.43454e-44
-1.24542e-42
-9.7719e-44
-6.07994e-44
-4.91887e-45
-3.33836e-45
-3.87084e-46
-5.07337e-47
-1.16786e-47
1.49097e-47
2.51527e-49
1.26574e-48
5.14477e-50
1.27469e-49
6.39335e-51
7.18045e-51
3.92389e-52
4.65474e-52
2.64579e-53
2.21642e-53
1.29815e-54
1.14011e-54
6.75583e-56
4.81504e-56
2.88758e-57
2.1095e-57
1.26747e-58
8.05718e-59
4.8591e-60
3.14019e-60
1.8892e-61
1.36323e-61
7.47539e-63
5.9593e-63
3.03503e-64
3.87159e-64
1.61159e-65
2.02431e-65
7.81227e-67
1.31494e-66
6.11593e-68
6.48421e-68
5.8364e-67
-2.08821e-68
2.19825e-65
-9.78182e-67
7.93003e-64
-3.76464e-65
2.82089e-62
-1.42235e-63
9.48981e-61
-5.12411e-62
3.17054e-59
-1.82159e-60
9.89265e-58
-6.11768e-59
3.09844e-56
-2.04287e-57
8.90207e-55
-6.36021e-56
2.60888e-53
-1.99157e-54
6.83463e-52
-5.70514e-53
1.87101e-50
-1.67234e-51
4.40871e-49
-4.36286e-50
1.1262e-47
-1.19523e-48
2.33999e-46
-2.79451e-47
5.58086e-45
-7.10475e-46
9.91852e-44
-1.40923e-44
2.21768e-42
-2.9341e-43
3.19871e-41
-1.33058e-42
6.75794e-40
2.03644e-40
6.88362e-39
1.88331e-38
1.32863e-37
9.98014e-37
4.01357e-35
3.59009e-45
-7.88266e-44
-3.70966e-45
-3.84063e-45
-1.99522e-46
-3.16851e-46
-1.74715e-47
-1.00687e-47
-6.34378e-49
1.66871e-49
-6.87894e-51
3.78967e-50
1.14476e-51
5.04704e-51
1.94466e-52
3.07954e-52
1.29537e-53
2.11667e-53
9.11856e-55
1.03558e-54
4.61032e-56
5.44085e-56
2.4358e-57
2.32304e-57
1.05764e-58
1.02539e-58
4.67246e-60
3.93041e-60
1.80757e-61
1.52723e-61
7.02531e-63
6.03649e-63
2.68479e-64
2.41779e-64
1.04214e-65
1.28646e-65
4.92642e-67
6.16345e-67
1.04471e-68
3.66948e-68
-4.7481e-67
1.85558e-69
-1.83365e-65
3.51623e-69
-6.93156e-64
1.374e-67
-2.50028e-62
5.28925e-66
-8.89218e-61
2.00066e-64
-2.99114e-59
7.21077e-63
-9.99088e-58
2.56706e-61
-3.11703e-56
8.62544e-60
-9.75974e-55
2.88554e-58
-2.80379e-53
8.98827e-57
-8.2138e-52
2.82107e-55
-2.15162e-50
8.08577e-54
-5.88733e-49
2.37748e-52
-1.38712e-47
6.20783e-51
-3.54118e-46
1.70964e-49
-7.35719e-45
4.02641e-48
-1.75322e-43
1.05636e-46
-3.11563e-42
2.3782e-45
-6.95815e-41
7.40211e-44
-1.00352e-39
2.71614e-42
-2.11642e-38
1.48136e-40
-2.15527e-37
7.96927e-39
-4.14666e-36
3.87742e-37
1.4774e-35
1.88802e-46
-3.04376e-45
-1.93591e-46
-1.57077e-46
-1.05562e-47
-1.45526e-47
-1.06499e-48
-5.44151e-49
-4.40257e-50
-7.6149e-51
-1.60671e-51
7.73678e-52
-1.21866e-53
1.52326e-52
4.90762e-54
1.01553e-53
4.11867e-55
7.31849e-55
3.24491e-56
3.69543e-56
1.71946e-57
1.97286e-57
9.3739e-59
8.56208e-59
4.13883e-60
3.80438e-60
1.84797e-61
1.47179e-61
7.18984e-63
5.72411e-63
2.79388e-64
2.18451e-64
1.03473e-65
8.34961e-66
3.8532e-67
3.96261e-67
1.60086e-68
6.34307e-68
-6.06225e-69
4.47222e-69
-2.68948e-67
8.19776e-70
-1.03588e-65
1.43273e-68
-3.91409e-64
5.73307e-67
-1.41154e-62
2.20598e-65
-5.01745e-61
8.33466e-64
-1.68739e-59
3.0025e-62
-5.63244e-58
1.06739e-60
-1.75685e-56
3.58467e-59
-5.49637e-55
1.19709e-57
-1.57863e-53
3.7269e-56
-4.61986e-52
1.16711e-54
-1.20988e-50
3.34335e-53
-3.30609e-49
9.80193e-52
-7.78753e-48
2.5574e-50
-1.98456e-46
7.01026e-49
-4.12194e-45
1.64223e-47
-9.79903e-44
4.20853e-46
-1.74073e-42
8.67847e-45
-3.87435e-41
2.0914e-43
-5.58458e-40
3.74238e-42
-1.17166e-38
8.90961e-41
-1.19177e-37
1.54074e-39
-2.27154e-36
4.23544e-38
-2.16374e-36
8.20064e-37
1.61584e-35
5.92674e-48
-6.13571e-46
-6.06346e-48
-3.16951e-47
-3.4597e-49
-3.34647e-48
-3.63104e-50
-1.3768e-49
-1.60507e-51
-4.85706e-51
-7.01419e-53
-3.13027e-53
-1.45061e-54
1.69078e-53
8.71147e-56
1.36005e-54
9.92911e-57
1.07877e-55
8.66054e-58
5.66091e-57
4.7958e-59
3.1014e-58
2.67756e-60
1.36408e-59
1.20364e-61
6.10977e-61
5.42188e-63
2.3732e-62
2.12856e-64
9.19139e-64
8.29243e-66
3.24286e-65
3.07685e-67
-8.35289e-67
1.37496e-68
3.88429e-68
-6.78471e-70
1.97008e-66
-1.74181e-69
1.49906e-67
-1.83433e-68
1.86558e-68
-7.02086e-67
6.75214e-69
-2.64485e-65
2.25671e-67
-9.53143e-64
8.67839e-66
-3.37403e-62
3.2769e-64
-1.13365e-60
1.18019e-62
-3.76278e-59
4.19242e-61
-1.17227e-57
1.4076e-59
-3.63945e-56
4.6961e-58
-1.04367e-54
1.46164e-56
-3.02249e-53
4.57159e-55
-7.89889e-52
1.30922e-53
-2.12754e-50
3.83216e-52
-4.99651e-49
9.99533e-51
-1.24785e-47
2.73404e-49
-2.58001e-46
6.40213e-48
-5.95722e-45
1.63557e-46
-1.05024e-43
3.36703e-45
-2.23647e-42
8.0484e-44
-3.17784e-41
1.41162e-42
-6.19856e-40
3.18659e-41
-6.109e-39
4.55847e-40
-1.00802e-37
9.98087e-39
-9.52926e-38
1.05682e-37
2.06155e-36
-1.99118e-47
-9.04571e-45
2.0357e-47
-4.65888e-46
1.15952e-48
-4.26286e-47
1.21216e-49
-1.57092e-48
5.32965e-51
-1.67689e-50
2.27761e-52
2.64936e-51
4.37817e-54
4.80062e-52
-3.31256e-55
3.15905e-53
-3.5381e-56
2.25871e-54
-3.02659e-57
1.13651e-55
-1.66416e-58
6.05111e-57
-9.24383e-60
2.62194e-58
-4.14274e-61
1.16351e-59
-1.861e-62
4.49733e-61
-7.29155e-64
1.73383e-62
-2.82564e-65
5.98128e-64
-8.74711e-67
-6.36052e-65
8.09757e-68
6.31432e-67
-5.15797e-68
8.40024e-65
-5.89948e-68
6.34874e-66
-6.57459e-69
7.94912e-67
-7.36588e-68
4.8527e-68
-2.78603e-66
1.93049e-68
-1.0151e-64
6.09443e-67
-3.63112e-63
2.29643e-65
-1.23213e-61
8.27449e-64
-4.12812e-60
2.93067e-62
-1.29701e-58
9.84157e-61
-4.05917e-57
3.26861e-59
-1.17169e-55
1.01719e-57
-3.41487e-54
3.16051e-56
-8.95894e-53
9.04559e-55
-2.42301e-51
2.62266e-53
-5.68902e-50
6.83161e-52
-1.42211e-48
1.84345e-50
-2.91933e-47
4.30607e-49
-6.71359e-46
1.07873e-47
-1.15986e-44
2.21056e-46
-2.43928e-43
5.13222e-45
-3.30065e-42
8.91508e-44
-6.27276e-41
1.91972e-42
-5.51328e-40
2.66739e-41
-8.92654e-39
5.34592e-40
-8.4358e-39
5.11814e-39
8.79168e-38
-5.55285e-46
-2.32385e-43
5.69447e-46
-1.13161e-44
3.09762e-47
-9.07524e-46
3.07171e-48
-2.78806e-47
1.24961e-49
7.36153e-49
4.15198e-51
1.25727e-49
1.56392e-54
1.59937e-50
-1.70836e-53
9.63983e-52
-1.34745e-54
6.57544e-53
-1.03409e-55
3.20397e-54
-5.4192e-57
1.67836e-55
-2.93229e-58
7.15164e-57
-1.28884e-59
3.15188e-58
-5.73478e-61
1.20676e-59
-2.22584e-62
4.62826e-61
-8.59656e-64
1.57448e-62
-2.49892e-65
-2.84944e-63
3.91812e-66
1.604e-65
-2.20482e-66
3.38056e-63
-2.53434e-66
2.54853e-64
-2.01886e-67
3.2321e-65
-2.74447e-68
1.95976e-66
-1.47619e-67
1.44825e-67
-5.33415e-66
6.79408e-68
-1.90602e-64
2.30952e-66
-6.4749e-63
8.40428e-65
-2.16404e-61
3.00478e-63
-6.80394e-60
1.01817e-61
-2.12045e-58
3.40982e-60
-6.12219e-57
1.06932e-58
-1.77271e-55
3.34586e-57
-4.64915e-54
9.63307e-56
-1.24534e-52
2.80801e-54
-2.92062e-51
7.33974e-53
-7.19921e-50
1.98687e-51
-1.47422e-48
4.63946e-50
-3.32157e-47
1.16236e-48
-5.70933e-46
2.36573e-47
-1.16449e-44
5.46677e-46
-1.55816e-43
9.31099e-45
-2.82327e-42
1.97802e-43
-2.41604e-41
2.60894e-42
-3.63365e-40
5.07029e-41
-3.41777e-40
4.21101e-40
7.1949e-39
-1.07322e-44
-3.76284e-42
1.10871e-44
-1.83361e-43
5.94741e-46
-1.00621e-44
5.15389e-47
-1.50187e-46
1.84213e-48
4.54681e-47
1.40602e-50
3.85418e-48
-3.81989e-51
3.8775e-49
-6.11815e-52
2.1842e-50
-4.03136e-53
1.41583e-51
-2.81939e-54
6.74229e-53
-1.42121e-55
3.46842e-54
-7.49153e-57
1.46497e-55
-3.24842e-58
6.41877e-57
-1.4335e-59
2.4519e-58
-5.54148e-61
9.33558e-60
-2.13787e-62
3.10101e-61
-5.30919e-64
-1.25715e-61
1.8544e-64
2.87861e-64
-9.3501e-65
1.35887e-61
-1.08014e-64
1.01603e-62
-8.55738e-66
1.30463e-63
-1.01331e-66
7.88936e-65
-7.13952e-68
5.82956e-66
-3.48679e-67
3.01133e-67
-1.24301e-65
1.49564e-67
-4.26541e-64
4.87614e-66
-1.43907e-62
1.74521e-64
-4.56556e-61
5.95023e-63
-1.43478e-59
1.99166e-61
-4.17405e-58
6.29015e-60
-1.21717e-56
1.96227e-58
-3.21008e-55
5.69845e-57
-8.64556e-54
1.65016e-55
-2.03299e-52
4.3619e-54
-5.02822e-51
1.16664e-52
-1.02764e-49
2.76693e-51
-2.31692e-48
6.79095e-50
-3.94302e-47
1.41447e-48
-8.01875e-46
3.15697e-47
-1.04607e-44
5.57883e-46
-1.88267e-43
1.11617e-44
-1.51928e-42
1.57083e-43
-2.28612e-41
2.73455e-42
-1.8725e-41
2.62998e-41
3.58379e-40
-2.77982e-43
-9.1538e-41
2.87951e-43
-4.10405e-42
1.44563e-44
-1.36924e-43
1.10635e-45
2.55123e-45
3.19449e-47
1.63228e-45
-1.05316e-48
1.15607e-46
-1.6985e-49
1.06474e-47
-2.02531e-50
5.69416e-49
-1.22801e-51
3.59594e-50
-8.2193e-53
1.66577e-51
-4.01639e-54
8.47034e-53
-2.0841e-55
3.51739e-54
-8.89e-57
1.5321e-55
-3.89629e-58
5.78714e-57
-1.49204e-59
2.17706e-58
-5.73752e-61
6.94627e-60
-1.12202e-62
-4.87102e-60
7.80363e-63
5.45373e-63
-3.74701e-63
5.08842e-60
-4.33979e-63
3.79569e-61
-3.43539e-64
4.93062e-62
-4.11412e-65
2.98498e-63
-2.52541e-66
2.22967e-64
-1.64737e-67
1.14313e-65
6.04072e-67
8.45824e-67
2.30707e-65
8.04787e-66
8.02526e-64
2.91759e-64
2.83144e-62
1.04164e-62
9.05357e-61
3.5286e-61
2.99107e-59
1.17969e-59
8.70908e-58
3.6993e-58
2.68904e-56
1.15505e-56
7.03772e-55
3.32634e-55
2.02618e-53
9.67071e-54
4.67899e-52
2.52954e-52
1.25256e-50
6.82493e-51
2.48209e-49
1.59572e-49
6.15497e-48
3.98133e-48
1.00025e-46
8.12002e-47
2.28361e-45
1.86666e-45
2.7964e-44
3.1891e-44
5.79734e-43
6.73178e-43
4.332e-42
8.91656e-42
7.73784e-41
1.71999e-40
1.43558e-39
-4.36555e-42
-1.12581e-39
4.53973e-42
-5.09215e-41
2.22589e-43
9.2476e-43
1.15371e-44
1.9154e-43
1.02489e-46
3.55168e-44
-5.9348e-47
2.20285e-45
-5.04218e-48
1.81583e-46
-4.84153e-49
9.33279e-48
-2.74356e-50
5.66654e-49
-1.74718e-51
2.58166e-50
-8.34503e-53
1.29154e-51
-4.25338e-54
5.3288e-53
-1.79892e-55
2.30814e-54
-7.83933e-57
8.69944e-56
-2.99613e-58
3.15173e-57
-1.15099e-59
8.67378e-59
-4.88468e-62
-1.90444e-58
3.27493e-61
1.06708e-62
-1.5029e-61
1.92542e-58
-1.74343e-61
1.42199e-59
-1.37129e-62
1.86819e-60
-1.66014e-63
1.12619e-61
-1.01719e-64
8.49489e-63
-6.88209e-66
4.35193e-64
1.72548e-65
2.63547e-65
6.29645e-64
7.45923e-65
2.13756e-62
2.6458e-63
7.14012e-61
9.36173e-62
2.24345e-59
3.14081e-60
6.98841e-58
1.04222e-58
2.01648e-56
3.24066e-57
5.83671e-55
1.00614e-55
1.52993e-53
2.87764e-54
4.09731e-52
8.33834e-53
9.605e-51
2.17099e-51
2.36765e-49
5.85605e-50
4.84712e-48
1.36775e-48
1.09248e-46
3.42628e-47
1.8779e-45
7.02468e-46
3.83333e-44
1.63173e-44
5.1322e-43
2.83919e-43
9.31295e-42
6.1228e-42
7.98017e-41
8.54561e-41
1.20267e-39
1.71819e-39
1.66297e-38
-1.09222e-40
-2.65495e-38
1.11035e-40
-1.03986e-39
4.86856e-42
6.69454e-41
1.5173e-43
6.46475e-42
-5.22873e-45
9.57475e-43
-2.08848e-45
5.4145e-44
-1.50283e-46
4.26736e-45
-1.3337e-47
2.09155e-46
-7.18953e-49
1.24649e-47