/*--------------------------------*- C++ -*----------------------------------*\
| =========                 |                                                 |
| \\      /  F ield         | OpenFOAM: The Open Source CFD Toolbox           |
|  \\    /   O peration     | Version:  2.4.0                                 |
|   \\  /    A nd           | Web:      www.OpenFOAM.org                      |
|    \\/     M anipulation  |                                                 |
\*---------------------------------------------------------------------------*/
FoamFile
{
    version     2.0;
    format      ascii;
    class       volVectorField;
    location    "0.2";
    object      U;
}
// * * * * * * * * * * * * * * * * * * * * * * * * * * * * * * * * * * * * * //

dimensions      [0 1 -1 0 0 0 0];

internalField   nonuniform List<vector> 
1935
(
(5.59284e-37 1.25957e-37 0)
(1.17595e-35 1.31405e-36 0)
(7.51688e-35 2.62744e-35 0)
(1.92762e-33 2.38889e-35 0)
(1.86372e-33 -5.16136e-35 0)
(-1.86366e-33 -5.16076e-35 0)
(-1.92703e-33 2.4025e-35 0)
(-6.28657e-35 2.77191e-35 0)
(7.52214e-35 2.89094e-35 0)
(2.00284e-33 5.04298e-35 0)
(3.80363e-33 -2.62683e-35 0)
(8.75196e-35 -7.55025e-35 0)
(-1.77619e-33 2.38889e-35 0)
(1.87607e-33 5.01633e-35 0)
(1.92821e-33 -2.40254e-35 0)
(7.52214e-35 -2.62809e-35 0)
(1.17632e-35 -1.31471e-36 0)
(5.40007e-37 -1.30043e-37 0)
(5.01671e-38 -6.06022e-39 0)
(2.31337e-39 -4.22435e-40 0)
(1.59509e-40 -1.87275e-41 0)
(7.04297e-42 -1.05743e-42 0)
(3.95564e-43 -4.40887e-44 0)
(1.72329e-44 -2.04411e-45 0)
(1.7261e-44 2.04763e-45 0)
(3.96323e-43 4.41682e-44 0)
(7.05862e-42 1.05948e-42 0)
(1.59889e-40 1.87695e-41 0)
(2.32002e-39 4.23448e-40 0)
(5.03196e-38 6.07789e-39 0)
(5.42161e-37 1.30446e-37 0)
(1.1811e-35 1.32034e-36 0)
(7.57109e-35 2.64048e-35 0)
(1.93943e-33 2.52092e-35 0)
(1.93943e-33 -2.52092e-35 0)
(7.57109e-35 -2.64048e-35 0)
(1.1811e-35 -1.32034e-36 0)
(5.42161e-37 -1.30446e-37 0)
(5.03196e-38 -6.07789e-39 0)
(2.32002e-39 -4.23448e-40 0)
(1.59889e-40 -1.87696e-41 0)
(7.0581e-42 -1.06027e-42 0)
(3.9256e-43 -5.75852e-44 0)
(-3.57758e-44 -9.85727e-44 0)
(5.09919e-38 -5.97463e-38 0)
(9.53175e-37 -6.64523e-37 0)
(6.69847e-36 -1.33061e-35 0)
(1.21875e-34 -1.20977e-35 0)
(1.16084e-34 2.61361e-35 0)
(-1.16079e-34 2.61332e-35 0)
(-1.2182e-34 -1.21654e-35 0)
(-5.69473e-36 -1.40357e-35 0)
(6.70321e-36 -1.46386e-35 0)
(1.28578e-34 -2.55364e-35 0)
(2.38962e-34 1.33031e-35 0)
(7.70649e-36 3.82339e-35 0)
(-1.08377e-34 -1.20977e-35 0)
(1.17092e-34 -2.54038e-35 0)
(1.2193e-34 1.21656e-35 0)
(6.70321e-36 1.33093e-35 0)
(9.53563e-37 6.64894e-37 0)
(5.01922e-38 6.47165e-38 0)
(4.50038e-39 2.99627e-39 0)
(2.23894e-40 2.06799e-40 0)
(1.52189e-41 9.11499e-42 0)
(7.06029e-43 5.11563e-43 0)
(3.94605e-44 2.12315e-44 0)
(1.78112e-45 9.80557e-46 0)
(1.78411e-45 -9.82235e-46 0)
(3.95389e-44 -2.12694e-44 0)
(7.07646e-43 -5.12543e-43 0)
(1.52567e-41 -9.1352e-42 0)
(2.2456e-40 -2.07289e-40 0)
(4.51489e-39 -3.00487e-39 0)
(5.04008e-38 -6.49141e-38 0)
(9.57839e-37 -6.67683e-37 0)
(6.74887e-36 -1.3371e-35 0)
(1.22833e-34 -1.27654e-35 0)
(1.22833e-34 1.27654e-35 0)
(6.74887e-36 1.3371e-35 0)
(9.57839e-37 6.67683e-37 0)
(5.04008e-38 6.49141e-38 0)
(4.51489e-39 3.00487e-39 0)
(2.2456e-40 2.07289e-40 0)
(1.52561e-41 9.13411e-42 0)
(6.97683e-43 4.9891e-43 0)
(-3.25352e-44 -2.11417e-43 0)
(-1.01428e-42 -1.68843e-42 0)
(7.3738e-39 -5.3119e-39 0)
(1.17682e-37 -6.08625e-38 0)
(4.06145e-37 -1.02283e-36 0)
(5.21088e-36 -9.1186e-37 0)
(4.9163e-36 2.00165e-36 0)
(-4.9155e-36 2.00136e-36 0)
(-5.2033e-36 -9.17951e-37 0)
(-2.81576e-37 -1.08953e-36 0)
(4.06914e-37 -1.14489e-36 0)
(5.61779e-36 -1.9466e-36 0)
(1.02517e-35 1.02254e-36 0)
(5.31403e-37 2.91352e-36 0)
(-4.38483e-36 -9.1186e-37 0)
(5.04156e-36 -1.93469e-36 0)
(5.2185e-36 9.17971e-37 0)
(4.06914e-37 1.02314e-36 0)
(1.1772e-37 6.08965e-38 0)
(6.84987e-39 5.80044e-39 0)
(7.30147e-40 2.91128e-40 0)
(3.7812e-41 1.98289e-41 0)
(2.74469e-42 9.19544e-43 0)
(1.295e-43 5.13601e-44 0)
(7.44105e-45 2.21048e-45 0)
(3.37856e-46 1.01985e-46 0)
(3.38429e-46 -1.02165e-46 0)
(7.45607e-45 -2.21454e-45 0)
(1.29806e-43 -5.14621e-44 0)
(2.75181e-42 -9.21648e-43 0)
(3.7934e-41 -1.9878e-41 0)
(7.32761e-40 -2.91996e-40 0)
(6.88493e-39 -5.81934e-39 0)
(1.18412e-37 -6.11677e-38 0)
(4.13028e-37 -1.02865e-36 0)
(5.32929e-36 -9.73027e-37 0)
(5.32929e-36 9.73027e-37 0)
(4.13028e-37 1.02865e-36 0)
(1.18412e-37 6.11677e-38 0)
(6.88493e-39 5.81934e-39 0)
(7.32761e-40 2.91996e-40 0)
(3.79332e-41 1.98772e-41 0)
(2.74151e-42 9.04763e-43 0)
(-4.58922e-44 -1.59964e-43 0)
(-1.26394e-42 -3.62996e-42 0)
(-1.82824e-41 -2.65318e-41 0)
(5.57553e-40 -8.77574e-40 0)
(7.95826e-39 -8.72455e-39 0)
(1.83222e-38 -1.42161e-37 0)
(1.697e-37 -1.26478e-37 0)
(1.58881e-37 2.78372e-37 0)
(-1.58818e-37 2.78322e-37 0)
(-1.69131e-37 -1.27483e-37 0)
(-9.84988e-39 -1.51848e-37 0)
(1.83823e-38 -1.59669e-37 0)
(1.88082e-37 -2.70603e-37 0)
(3.3705e-37 1.42111e-37 0)
(2.68479e-38 4.0485e-37 0)
(-1.32027e-37 -1.26478e-37 0)
(1.67407e-37 -2.68639e-37 0)
(1.70272e-37 1.27487e-37 0)
(1.83823e-38 1.42214e-37 0)
(7.9607e-39 8.73142e-39 0)
(5.11653e-40 9.55855e-40 0)
(5.69568e-41 4.96639e-41 0)
(3.11272e-42 3.60676e-42 0)
(2.29002e-43 1.70115e-43 0)
(1.11782e-44 9.76992e-45 0)
(6.4627e-46 4.22858e-46 0)
(3.00323e-47 1.97122e-47 0)
(3.00841e-47 -1.9747e-47 0)
(6.47609e-46 -4.23642e-46 0)
(1.12054e-44 -9.78963e-45 0)
(2.2962e-43 -1.70518e-43 0)
(3.12325e-42 -3.61611e-42 0)
(5.71745e-41 -4.98242e-41 0)
(5.14535e-40 -9.5929e-40 0)
(8.01452e-39 -8.77745e-39 0)
(1.88365e-38 -1.4312e-37 0)
(1.77714e-37 -1.35255e-37 0)
(1.77714e-37 1.35255e-37 0)
(1.88365e-38 1.4312e-37 0)
(8.01452e-39 8.77745e-39 0)
(5.14535e-40 9.5929e-40 0)
(5.71739e-41 4.98234e-41 0)
(3.11047e-42 3.6028e-42 0)
(6.98102e-44 -9.40159e-44 0)
(-2.73243e-42 -3.30963e-42 0)
(-1.99733e-41 -5.81756e-41 0)
(-2.89692e-40 -4.28167e-40 0)
(4.86013e-41 -1.06765e-40 0)
(6.99372e-40 -6.67201e-40 0)
(9.34252e-40 -9.986e-39 0)
(3.48224e-39 -8.79613e-39 0)
(3.20468e-39 1.95201e-38 0)
(-3.19847e-39 1.9516e-38 0)
(-3.4299e-39 -8.87483e-39 0)
(-1.8951e-40 -1.07204e-38 0)
(9.39889e-40 -1.13123e-38 0)
(4.42194e-39 -1.89327e-38 0)
(7.43088e-39 9.97866e-39 0)
(1.68374e-39 2.8316e-38 0)
(-1.52031e-39 -8.7959e-39 0)
(3.95438e-39 -1.87786e-38 0)
(3.53451e-39 8.87513e-39 0)
(9.39889e-40 9.98717e-39 0)
(6.97921e-40 6.62859e-40 0)
(4.65959e-41 7.48448e-41 0)
(5.55427e-42 4.09723e-42 0)
(3.09256e-43 3.01385e-43 0)
(2.33479e-44 1.47064e-44 0)
(1.15013e-45 8.49798e-46 0)
(6.71558e-47 3.76407e-47 0)
(3.13135e-48 1.75976e-48 0)
(3.13677e-48 -1.76293e-48 0)
(6.72956e-47 -3.77119e-47 0)
(1.15297e-45 -8.51557e-46 0)
(2.34121e-44 -1.47422e-44 0)
(3.10339e-43 -3.02197e-43 0)
(5.57646e-42 -4.11109e-42 0)
(4.68817e-41 -7.51314e-41 0)
(7.03164e-40 -6.66653e-40 0)
(9.80884e-40 -1.00579e-38 0)
(4.18522e-39 -9.46254e-39 0)
(4.18522e-39 9.46254e-39 0)
(9.80884e-40 1.00579e-38 0)
(7.03163e-40 6.66653e-40 0)
(4.68811e-41 7.51309e-41 0)
(5.56638e-42 4.1007e-42 0)
(1.10092e-43 1.28836e-43 0)
(-2.48676e-42 -3.4477e-42 0)
(-4.39628e-41 -4.37234e-41 0)
(-3.22487e-40 -7.7314e-40 0)
(-4.81113e-39 -5.8009e-39 0)
(-5.68178e-41 -5.47712e-40 0)
(7.21026e-41 -1.3819e-40 0)
(4.96123e-41 -9.60899e-40 0)
(5.2509e-42 -8.02217e-40 0)
(-7.10975e-43 1.77443e-39 0)
(1.33967e-42 1.77446e-39 0)
(7.54969e-43 -8.0624e-40 0)
(2.28303e-42 -9.76011e-40 0)
(4.64123e-41 -1.03031e-39 0)
(4.92163e-41 -1.72103e-39 0)
(5.01794e-41 9.07023e-40 0)
(9.46503e-41 2.57339e-39 0)
(9.55797e-41 -7.98504e-40 0)
(4.77623e-41 -1.70593e-39 0)
(6.3839e-42 8.06269e-40 0)
(4.64123e-41 9.07871e-40 0)
(4.51153e-41 6.12541e-41 0)
(3.17078e-42 7.32785e-42 0)
(3.86986e-43 4.08078e-43 0)
(2.22529e-44 3.07892e-44 0)
(1.69464e-45 1.51612e-45 0)
(8.52569e-47 8.84789e-47 0)
(4.99562e-48 3.93211e-48 0)
(2.36205e-49 1.84211e-49 0)
(2.36618e-49 -1.84542e-49 0)
(5.00617e-48 -3.93956e-48 0)
(8.5471e-47 -8.86631e-47 0)
(1.69941e-45 -1.51986e-45 0)
(2.23331e-44 -3.08738e-44 0)
(3.88595e-43 -4.09506e-43 0)
(3.19133e-42 -7.35712e-42 0)
(4.54799e-41 -6.16312e-41 0)
(4.91927e-41 -9.14788e-40 0)
(4.82839e-41 -8.60134e-40 0)
(4.82839e-41 8.60134e-40 0)
(4.91927e-41 9.14788e-40 0)
(4.54795e-41 6.16309e-41 0)
(3.18346e-42 7.35087e-42 0)
(2.5721e-43 2.68878e-43 0)
(-2.60069e-42 -2.32576e-42 0)
(-3.30871e-41 -4.80545e-41 0)
(-5.84655e-40 -6.12062e-40 0)
(-4.37126e-39 -1.11675e-38 0)
(-6.58143e-38 -8.55475e-38 0)
(-8.38906e-40 -8.20728e-39 0)
(3.87924e-40 -1.06646e-39 0)
(5.96748e-41 -7.77552e-40 0)
(3.34267e-41 -1.01237e-40 0)
(-3.8364e-42 1.1011e-40 0)
(7.01393e-42 1.15701e-40 0)
(7.12836e-42 -5.25204e-41 0)
(6.52612e-43 -6.40918e-41 0)
(2.91156e-42 -6.77967e-41 0)
(-3.93225e-42 -1.12397e-40 0)
(-9.94924e-42 5.93597e-41 0)
(6.43918e-42 1.68025e-40 0)
(1.30775e-41 -5.19539e-41 0)
(-3.07606e-42 -1.11343e-40 0)
(-6.57737e-42 5.24967e-41 0)
(2.91149e-42 5.94208e-41 0)
(3.2962e-42 4.19025e-42 0)
(2.35201e-43 5.11303e-43 0)
(2.94629e-44 2.93919e-44 0)
(1.71194e-45 2.23648e-45 0)
(1.31666e-46 1.12474e-46 0)
(6.66102e-48 6.58688e-48 0)
(3.91227e-49 2.9683e-49 0)
(1.85303e-50 1.39156e-50 0)
(1.85626e-50 -1.39408e-50 0)
(3.92054e-49 -2.97398e-49 0)
(6.67782e-48 -6.60079e-48 0)
(1.32039e-46 -1.12756e-46 0)
(1.71821e-45 -2.24276e-45 0)
(2.95879e-44 -2.94978e-44 0)
(2.3678e-43 -5.13426e-43 0)
(3.32393e-42 -4.2174e-42 0)
(3.11696e-42 -5.99025e-41 0)
(-3.51981e-42 -5.61712e-41 0)
(-3.51981e-42 5.61711e-41 0)
(3.11672e-42 5.99024e-41 0)
(3.31919e-42 4.21429e-42 0)
(1.30072e-43 4.50759e-43 0)
(-1.75777e-42 -1.38427e-42 0)
(-3.64292e-41 -2.38285e-41 0)
(-4.63455e-40 -4.89567e-40 0)
(-8.44812e-39 -6.3516e-39 0)
(-6.44422e-38 -1.17545e-37 0)
(-1.01305e-36 -9.465e-37 0)
(-1.21138e-38 -9.63157e-38 0)
(6.40046e-39 -1.49597e-38 0)
(8.21557e-40 -1.10165e-38 0)
(5.41568e-40 -7.32241e-40 0)
(3.66546e-41 -7.84669e-41 0)
(5.0218e-42 3.70347e-42 0)
(8.09454e-43 -4.22265e-42 0)
(6.90335e-44 -4.7362e-42 0)
(1.67252e-43 -4.99415e-42 0)
(-3.6884e-43 -8.26389e-42 0)
(-8.34882e-43 4.36523e-42 0)
(3.79706e-43 1.23523e-41 0)
(8.93198e-43 -3.81598e-42 0)
(-2.97873e-43 -8.18347e-42 0)
(-5.1858e-43 3.85738e-42 0)
(1.66264e-43 4.36994e-42 0)
(1.99054e-43 3.1176e-43 0)
(1.46239e-44 3.89738e-44 0)
(1.84941e-45 2.26328e-45 0)
(1.09633e-46 1.73913e-46 0)
(8.45805e-48 8.79498e-48 0)
(4.33517e-49 5.16289e-49 0)
(2.54655e-50 2.33084e-50 0)
(1.21581e-51 1.09091e-51 0)
(1.21794e-51 -1.09287e-51 0)
(2.55196e-50 -2.3353e-50 0)
(4.3462e-49 -5.1738e-49 0)
(8.48235e-48 -8.81715e-48 0)
(1.10041e-46 -1.74406e-46 0)
(1.85743e-45 -2.27156e-45 0)
(1.4725e-44 -3.91388e-44 0)
(2.00793e-43 -3.13848e-43 0)
(1.79022e-43 -4.40663e-42 0)
(-3.34373e-43 -4.12982e-42 0)
(-3.34465e-43 4.12976e-42 0)
(1.76662e-43 4.40524e-42 0)
(1.53141e-43 2.79028e-43 0)
(-1.05999e-42 -6.67665e-43 0)
(-1.81047e-41 -1.63092e-41 0)
(-3.71745e-40 -2.77385e-40 0)
(-4.81473e-39 -5.89537e-39 0)
(-8.89371e-38 -7.79489e-38 0)
(-7.10559e-37 -1.52184e-36 0)
(-1.12819e-35 -1.28698e-35 0)
(-1.20532e-37 -1.35242e-36 0)
(9.46011e-38 -1.71076e-37 0)
(1.28395e-38 -1.18188e-37 0)
(8.33506e-39 -7.69343e-39 0)
(5.48811e-40 -8.75457e-40 0)
(6.57266e-41 -4.74462e-41 0)
(3.68743e-42 -3.78965e-42 0)
(2.79943e-43 -4.60087e-43 0)
(2.39337e-44 -3.13415e-43 0)
(-2.54125e-44 -4.99945e-43 0)
(-5.78904e-44 2.64207e-43 0)
(2.38351e-44 7.46507e-43 0)
(5.87778e-44 -2.30073e-43 0)
(-2.12838e-44 -4.94446e-43 0)
(-3.54617e-44 2.32676e-43 0)
(1.03136e-44 2.64531e-43 0)
(1.26006e-44 1.94083e-44 0)
(9.3462e-46 2.44792e-45 0)
(1.19303e-46 1.45017e-46 0)
(7.12092e-48 1.11775e-47 0)
(5.50555e-49 5.72685e-49 0)
(2.8316e-50 3.36225e-50 0)
(1.66052e-51 1.53019e-51 0)
(7.931e-53 7.14946e-53 0)
(7.94481e-53 -7.16237e-53 0)
(1.66404e-51 -1.53312e-51 0)
(2.8388e-50 -3.3694e-50 0)
(5.52139e-49 -5.74141e-49 0)
(7.14756e-48 -1.12096e-47 0)
(1.19825e-46 -1.45556e-46 0)
(9.41185e-46 -2.45852e-45 0)
(1.27127e-44 -1.95421e-44 0)
(1.11261e-44 -2.66833e-43 0)
(-2.38556e-44 -2.49628e-43 0)
(-2.48716e-44 2.49248e-43 0)
(-1.54051e-44 2.58313e-43 0)
(-5.25784e-43 -1.93265e-43 0)
(-1.24221e-41 -4.33625e-42 0)
(-2.11159e-40 -1.00514e-40 0)
(-4.48332e-39 -1.73719e-39 0)
(-5.91002e-38 -3.74128e-38 0)
(-1.14903e-36 -5.19543e-37 0)
(-9.55299e-36 -1.05099e-35 0)
(-1.63369e-34 -1.03214e-34 0)
(-9.70341e-37 -1.21878e-35 0)
(1.99535e-36 -2.2026e-36 0)
(1.91062e-37 -1.74398e-36 0)
(8.98989e-38 -1.06291e-37 0)
(5.75725e-39 -1.17873e-38 0)
(6.56748e-40 -6.1495e-40 0)
(3.59963e-41 -4.49931e-41 0)
(2.67993e-42 -2.14558e-42 0)
(1.31722e-43 -1.41697e-43 0)
(6.12504e-45 -3.68588e-44 0)
(-2.9549e-45 1.64379e-44 0)
(1.33655e-45 4.71385e-44 0)
(3.29791e-45 -1.45204e-44 0)
(-1.21683e-45 -3.12251e-44 0)
(-2.00963e-45 1.46875e-44 0)
(5.67622e-46 1.67153e-44 0)
(7.00304e-46 1.23771e-45 0)
(5.29625e-47 1.5744e-46 0)
(6.77581e-48 9.39024e-48 0)
(4.09813e-49 7.25032e-49 0)
(3.16592e-50 3.72718e-50 0)
(1.64164e-51 2.18394e-51 0)
(9.60342e-53 9.94401e-53 0)
(4.6061e-54 4.62729e-54 0)
(4.61409e-54 -4.6356e-54 0)
(9.62374e-53 -9.96297e-53 0)
(1.64581e-51 -2.18857e-51 0)
(3.17503e-50 -3.73666e-50 0)
(4.11342e-49 -7.27121e-49 0)
(6.80533e-48 -9.42548e-48 0)
(5.33265e-47 -1.58133e-46 0)
(7.06262e-46 -1.24652e-45 0)
(6.03269e-46 -1.68677e-44 0)
(-1.6449e-45 -1.58821e-44 0)
(-7.91524e-45 1.25883e-44 0)
(-1.63057e-43 -5.74827e-44 0)
(-3.33758e-42 -1.90609e-42 0)
(-7.73186e-41 -3.92114e-41 0)
(-1.33587e-39 -9.43078e-40 0)
(-2.8687e-38 -1.65225e-38 0)
(-3.94255e-37 -3.77157e-37 0)
(-7.84069e-36 -5.43487e-36 0)
(-7.22659e-35 -1.22205e-34 0)
(-1.25338e-33 -1.3553e-33 0)
(1.83539e-35 -2.00017e-34 0)
(4.78866e-35 -2.17077e-35 0)
(4.12728e-36 -1.4613e-35 0)
(1.60513e-36 -8.66509e-37 0)
(9.48277e-38 -8.52678e-38 0)
(1.05371e-38 -4.32749e-39 0)
(5.49653e-40 -3.00467e-40 0)
(4.04837e-41 -1.40379e-41 0)
(1.91727e-42 -7.91914e-43 0)
(1.10762e-43 -3.54601e-44 0)
(4.66852e-45 -9.7056e-46 0)
(2.88805e-46 1.84642e-45 0)
(1.46937e-46 -5.9084e-46 0)
(-5.07036e-47 -1.26634e-45 0)
(-8.41224e-47 5.95044e-46 0)
(2.3549e-47 6.78635e-46 0)
(2.91316e-47 5.11477e-47 0)
(2.21134e-48 6.58502e-48 0)
(2.82862e-49 3.98268e-49 0)
(1.71346e-50 3.09393e-50 0)
(1.31858e-51 1.60602e-51 0)
(6.8306e-53 9.43396e-53 0)
(3.9719e-54 4.32173e-54 0)
(1.89832e-55 2.01109e-55 0)
(1.90034e-55 -2.0147e-55 0)
(3.97568e-54 -4.32998e-54 0)
(6.83254e-53 -9.45401e-53 0)
(1.31726e-51 -1.61011e-51 0)
(1.70397e-50 -3.10287e-50 0)
(2.79121e-49 -3.9976e-49 0)
(2.08415e-48 -6.61376e-48 0)
(2.51996e-47 -5.14982e-47 0)
(-8.40589e-47 -6.84354e-46 0)
(-3.06435e-45 -6.27504e-46 0)
(-7.05032e-44 9.47789e-46 0)
(-1.80841e-42 7.84606e-45 0)
(-3.72433e-41 1.65864e-43 0)
(-8.95799e-40 3.26583e-42 0)
(-1.56965e-38 5.76967e-41 0)
(-3.56163e-37 1.47861e-40 0)
(-5.01387e-36 -5.10375e-38 0)
(-1.08781e-34 -3.88307e-36 0)
(-1.05301e-33 -1.86931e-34 0)
(-2.14409e-32 -6.39647e-33 0)
(1.43718e-33 -1.53435e-33 0)
(2.13309e-33 -3.87547e-34 0)
(1.19721e-34 -3.3979e-34 0)
(1.88812e-35 -1.75316e-35 0)
(1.01363e-36 -1.72016e-36 0)
(9.46041e-38 -8.13885e-38 0)
(4.76299e-39 -5.6457e-39 0)
(3.29577e-40 -2.52507e-40 0)
(1.53934e-41 -1.42127e-41 0)
(8.67253e-43 -5.96008e-43 0)
(3.7474e-44 -2.86626e-44 0)
(1.80907e-45 -1.05032e-45 0)
(7.66884e-47 -7.00502e-47 0)
(1.45717e-48 -4.99521e-47 0)
(-2.55426e-48 2.25794e-47 0)
(7.48098e-49 2.58456e-47 0)
(9.23306e-49 1.95656e-48 0)
(7.09966e-50 2.50398e-49 0)
(9.11206e-51 1.51614e-50 0)
(5.57054e-52 1.16832e-51 0)
(4.28736e-53 6.05333e-53 0)
(2.23322e-54 3.52353e-54 0)
(1.29607e-55 1.6074e-55 0)
(6.20943e-57 7.40983e-57 0)
(6.24834e-57 -7.41039e-57 0)
(1.30901e-55 -1.60603e-55 0)
(2.27306e-54 -3.51546e-54 0)
(4.41238e-53 -6.01669e-53 0)
(5.9417e-52 -1.1545e-51 0)
(1.02316e-50 -1.46832e-50 0)
(1.02425e-49 -2.34941e-49 0)
(1.82058e-48 -1.49447e-48 0)
(2.40651e-47 -1.23236e-47 0)
(6.20441e-46 3.36929e-46 0)
(1.4669e-44 9.74865e-45 0)
(3.64471e-43 2.30044e-43 0)
(7.59004e-42 5.73932e-42 0)
(1.74975e-40 1.18148e-40 0)
(3.11973e-39 2.58229e-39 0)
(6.69167e-38 3.21527e-38 0)
(9.66494e-37 -2.01035e-37 0)
(1.94147e-35 -6.29292e-35 0)
(1.95545e-34 -3.64915e-33 0)
(3.54605e-33 -1.53153e-31 0)
(6.21541e-32 -3.72927e-32 0)
(6.63119e-32 -1.37499e-33 0)
(2.72742e-33 -3.41212e-35 0)
(4.35559e-34 -6.44371e-37 0)
(2.06356e-35 -6.41222e-39 0)
(1.93431e-36 6.5543e-41 0)
(9.09604e-38 1.16717e-41 0)
(6.30056e-39 5.41145e-43 0)
(2.81835e-40 2.77031e-44 0)
(1.58701e-41 1.07684e-45 0)
(6.65693e-43 4.75039e-47 0)
(3.20549e-44 4.04135e-48 0)
(1.2554e-45 -6.54965e-49 0)
(5.32329e-47 -1.55152e-48 0)
(1.85638e-48 7.29245e-49 0)
(9.95649e-50 8.33857e-49 0)
(3.38869e-50 6.39778e-50 0)
(2.50565e-51 8.1954e-51 0)
(3.11052e-52 5.00722e-52 0)
(1.89371e-53 3.85278e-53 0)
(1.44173e-54 2.00649e-54 0)
(7.48694e-56 1.16439e-55 0)
(4.30546e-57 5.3225e-57 0)
(2.1524e-58 2.44307e-58 0)
(5.64987e-58 -2.45531e-58 0)
(1.694e-56 -5.36037e-57 0)
(4.98641e-55 -1.17675e-55 0)
(1.53963e-53 -2.04487e-54 0)
(4.53879e-52 -3.97512e-53 0)
(1.3706e-50 -5.37242e-52 0)
(3.87878e-49 -9.3165e-51 0)
(1.11033e-47 -9.55104e-50 0)
(2.91389e-46 -1.75253e-48 0)
(7.78421e-45 -2.45516e-47 0)
(1.84985e-43 -6.50543e-46 0)
(4.58604e-42 -1.52322e-44 0)
(9.65865e-41 -3.87901e-43 0)
(2.21963e-39 -7.74229e-42 0)
(4.02382e-38 -1.65446e-40 0)
(8.59117e-37 -1.15911e-39 0)
(1.27362e-35 8.05634e-38 0)
(2.54252e-34 8.43887e-36 0)
(2.69202e-33 4.5335e-34 0)
(4.8526e-32 1.83857e-32 0)
(2.15384e-33 -3.69867e-32 0)
(1.77219e-33 -1.05005e-33 0)
(1.04056e-34 3.03216e-34 0)
(1.70445e-35 1.68168e-35 0)
(9.33357e-37 1.71059e-36 0)
(8.85656e-38 8.13377e-38 0)
(4.50386e-39 5.65097e-39 0)
(3.14309e-40 2.52789e-40 0)
(1.47673e-41 1.42276e-41 0)
(8.36263e-43 5.96546e-43 0)
(3.62797e-44 2.87139e-44 0)
(1.75554e-45 1.12414e-45 0)
(7.04523e-47 4.76821e-47 0)
(3.00266e-48 1.68972e-48 0)
(1.09083e-49 9.13755e-50 0)
(5.04778e-51 3.07085e-50 0)
(1.09524e-51 2.26721e-51 0)
(7.896e-53 2.80748e-52 0)
(9.53921e-54 1.70812e-53 0)
(5.81934e-55 1.29943e-54 0)
(4.3972e-56 6.74579e-56 0)
(2.28759e-57 3.87734e-57 0)
(1.30741e-58 1.7642e-58 0)
(6.17947e-60 7.68756e-60 0)
(4.35154e-60 -2.06628e-59 0)
(5.17558e-59 -6.30677e-58 0)
(-4.79524e-58 -1.98886e-56 0)
(-6.40147e-56 -6.04696e-55 0)
(-2.84199e-54 -1.90659e-53 0)
(-1.15323e-52 -5.70675e-52 0)
(-3.4887e-51 -1.74177e-50 0)
(-1.21113e-49 -4.94698e-49 0)
(-3.11297e-48 -1.42658e-47 0)
(-1.00655e-46 -3.73741e-46 0)
(-2.25952e-45 -1.00641e-44 0)
(-6.92552e-44 -2.37935e-43 0)
(-1.33841e-42 -5.93905e-42 0)
(-3.91882e-41 -1.2199e-40 0)
(-6.30123e-40 -2.65266e-39 0)
(-1.78553e-38 -3.15405e-38 0)
(-2.2512e-37 3.27561e-37 0)
(-6.30949e-36 7.23884e-35 0)
(-5.27161e-35 4.13641e-33 0)
(-1.4766e-33 1.72404e-31 0)
(3.99098e-34 -1.21627e-33 0)
(-1.4367e-34 -4.9614e-35 0)
(-4.27553e-36 1.11023e-35 0)
(6.17502e-37 7.4815e-37 0)
(5.1382e-38 7.80803e-38 0)
(7.26767e-39 4.02699e-39 0)
(4.08807e-40 2.82091e-40 0)
(3.21883e-41 1.32572e-41 0)
(1.57635e-42 7.50407e-43 0)
(9.39635e-44 3.25432e-44 0)
(4.15367e-45 1.57412e-45 0)
(2.05768e-46 6.3153e-47 0)
(8.31859e-48 2.69173e-48 0)
(3.58109e-49 9.85938e-50 0)
(1.32552e-50 4.59157e-51 0)
(5.35925e-52 9.9267e-52 0)
(4.70596e-53 7.14915e-53 0)
(2.91028e-54 8.61578e-54 0)
(3.0876e-55 5.25267e-55 0)
(1.84023e-56 3.96553e-56 0)
(1.35704e-57 2.06228e-57 0)
(7.00856e-59 1.17806e-58 0)
(3.85071e-60 5.35822e-60 0)
(-3.8253e-60 2.4843e-61 0)
(-1.44357e-58 1.84993e-63 0)
(-5.13618e-57 3.5695e-60 0)
(-1.72542e-55 2.10173e-58 0)
(-5.76542e-54 9.07177e-57 0)
(-1.79504e-52 3.45113e-55 0)
(-5.62483e-51 1.15213e-53 0)
(-1.61118e-49 3.82729e-52 0)
(-4.72738e-48 1.11349e-50 0)
(-1.23321e-46 3.41092e-49 0)
(-3.38404e-45 8.85393e-48 0)
(-7.92515e-44 2.54148e-46 0)
(-2.03338e-42 5.86937e-45 0)
(-4.18609e-41 1.59912e-43 0)
(-1.00623e-39 3.34864e-42 0)
(-1.76234e-38 9.68322e-41 0)
(-3.99587e-37 2.59691e-39 0)
(-5.62152e-36 1.16393e-37 0)
(-1.21858e-34 5.1638e-36 0)
(-1.17841e-33 2.26007e-34 0)
(-2.3975e-32 7.33005e-33 0)
(1.56735e-35 -1.86699e-34 0)
(-7.01038e-36 -7.25851e-36 0)
(-2.98249e-37 4.48796e-37 0)
(1.19721e-38 4.39065e-38 0)
(1.61212e-39 6.5093e-39 0)
(2.74968e-40 3.67814e-40 0)
(1.68024e-41 2.89738e-41 0)
(1.37085e-42 1.41857e-42 0)
(7.01389e-44 8.45133e-44 0)
(4.24167e-45 3.73475e-45 0)
(1.9283e-46 1.84951e-46 0)
(9.62786e-48 7.47534e-48 0)
(3.96793e-49 3.21764e-49 0)
(1.71683e-50 1.19338e-50 0)
(6.45925e-52 4.83465e-52 0)
(2.5653e-53 4.25602e-53 0)
(1.70294e-54 2.63243e-54 0)
(9.59354e-56 2.7885e-55 0)
(9.17983e-57 1.66111e-56 0)
(5.37506e-58 1.22394e-57 0)
(3.87804e-59 6.31927e-59 0)
(1.99526e-60 3.56597e-60 0)
(1.17366e-61 1.68042e-61 0)
(2.2781e-61 2.68923e-61 0)
(8.04081e-60 9.87892e-60 0)
(2.85249e-58 3.55938e-58 0)
(9.59527e-57 1.26533e-56 0)
(3.19178e-55 4.24944e-55 0)
(9.94833e-54 1.41885e-53 0)
(3.09516e-52 4.41694e-52 0)
(8.86964e-51 1.38283e-50 0)
(2.57414e-49 3.96083e-49 0)
(6.71018e-48 1.16083e-47 0)
(1.81151e-46 3.02824e-46 0)
(4.23103e-45 8.29718e-45 0)
(1.05962e-43 1.94326e-43 0)
(2.16796e-42 4.97586e-42 0)
(5.02572e-41 1.0246e-40 0)
(8.68726e-40 2.45696e-39 0)
(1.86224e-38 4.31149e-38 0)
(2.54578e-37 9.77898e-37 0)
(5.03364e-36 1.40146e-35 0)
(4.55442e-35 3.09271e-34 0)
(7.84721e-34 3.29605e-33 0)
(1.41849e-36 -7.23133e-36 0)
(-7.00012e-37 -3.27936e-37 0)
(-3.10366e-38 8.90289e-39 0)
(-1.11716e-39 1.41282e-39 0)
(1.53428e-41 2.47352e-40 0)
(1.20129e-41 1.51429e-41 0)
(8.59963e-43 1.2348e-42 0)
(7.97104e-44 6.31517e-44 0)
(4.27254e-45 3.8168e-45 0)
(2.70359e-46 1.73459e-46 0)
(1.25341e-47 8.65764e-48 0)
(6.37959e-49 3.5673e-49 0)
(2.65016e-50 1.54323e-50 0)
(1.15496e-51 5.81255e-52 0)
(4.36094e-53 2.31114e-53 0)
(1.70319e-54 1.53822e-54 0)
(8.23024e-56 8.67092e-56 0)
(3.91181e-57 8.28929e-57 0)
(2.97757e-58 4.85162e-58 0)
(1.64095e-59 3.49775e-59 0)
(1.123e-60 1.79887e-60 0)
(6.15871e-62 1.0066e-61 0)
(1.87509e-61 1.25306e-62 0)
(6.96381e-60 3.08121e-61 0)
(2.50803e-58 1.16347e-59 0)
(8.91107e-57 4.1915e-58 0)
(2.99189e-55 1.49026e-56 0)
(9.98437e-54 5.00501e-55 0)
(3.10761e-52 1.67166e-53 0)
(9.72316e-51 5.20459e-52 0)
(2.78453e-49 1.63016e-50 0)
(8.15441e-48 4.67002e-49 0)
(2.12686e-46 1.36947e-47 0)
(5.82148e-45 3.57322e-46 0)
(1.36313e-43 9.79792e-45 0)
(3.48554e-42 2.29544e-43 0)
(7.17421e-41 5.88568e-42 0)
(1.7165e-39 1.21444e-40 0)
(3.00528e-38 2.93374e-39 0)
(6.76972e-37 5.29445e-38 0)
(9.51598e-36 1.28641e-36 0)
(2.04307e-34 2.37715e-35 0)
(1.97128e-33 6.93619e-34 0)
(3.9479e-32 1.48461e-32 0)
(5.57796e-38 -6.43656e-37 0)
(-2.77803e-38 -2.87593e-38 0)
(-1.35807e-39 -1.02153e-39 0)
(-7.29608e-41 1.39318e-41 0)
(-1.01588e-42 1.08633e-41 0)
(3.50502e-43 7.76788e-43 0)
(2.93161e-44 7.18784e-44 0)
(2.93171e-45 3.85037e-45 0)
(1.6474e-46 2.43473e-46 0)
(1.06605e-47 1.12838e-47 0)
(5.07184e-49 5.74109e-49 0)
(2.60734e-50 2.3844e-50 0)
(1.10086e-51 1.03894e-51 0)
(4.82221e-53 3.92436e-53 0)
(1.8412e-54 1.53334e-54 0)
(7.17535e-56 7.42204e-56 0)
(3.12483e-57 3.53064e-57 0)
(1.37e-58 2.68744e-58 0)
(8.9618e-60 1.48079e-59 0)
(4.69898e-61 1.0127e-60 0)
(3.08382e-62 5.12039e-62 0)
(1.05631e-62 2.70489e-63 0)
(3.47862e-61 -3.93387e-63 0)
(1.31404e-59 -1.56157e-61 0)
(4.73388e-58 -5.89741e-60 0)
(1.68296e-56 -2.12405e-58 0)
(5.65203e-55 -7.54675e-57 0)
(1.88753e-53 -2.53391e-55 0)
(5.87639e-52 -8.45594e-54 0)
(1.84026e-50 -2.63201e-52 0)
(5.27146e-49 -8.23498e-51 0)
(1.54545e-47 -2.35849e-49 0)
(4.03185e-46 -6.90643e-48 0)
(1.10515e-44 -1.80127e-46 0)
(2.58832e-43 -4.92704e-45 0)
(6.63076e-42 -1.15016e-43 0)
(1.36507e-40 -2.90302e-42 0)
(3.27433e-39 -5.58987e-41 0)
(5.7339e-38 -1.01721e-39 0)
(1.29625e-36 9.52122e-39 0)
(1.82256e-35 1.88984e-36 0)
(3.93446e-34 1.40622e-34 0)
(3.79884e-33 7.23885e-33 0)
(7.68432e-32 2.85783e-31 0)
(3.64229e-39 -2.52372e-38 0)
(-1.80978e-39 -1.23238e-39 0)
(-8.82535e-41 -6.54984e-41 0)
(-7.28765e-42 -8.88463e-43 0)
(-2.30841e-43 3.18017e-43 0)
(4.00327e-45 2.6514e-44 0)
(8.82241e-46 2.64508e-45 0)
(1.17049e-46 1.48521e-46 0)
(7.13157e-48 9.60337e-48 0)
(4.89946e-49 4.56723e-49 0)
(2.3956e-50 2.34702e-50 0)
(1.2585e-51 9.90728e-52 0)
(5.37156e-53 4.33889e-53 0)
(2.37101e-54 1.65697e-54 0)
(9.08503e-56 6.45879e-56 0)
(3.52987e-57 2.81611e-57 0)
(1.39601e-58 1.23558e-58 0)
(5.59634e-60 8.08555e-60 0)
(2.98711e-61 4.23938e-61 0)
(1.43133e-62 2.76068e-62 0)
(8.6077e-64 1.36516e-63 0)
(3.27151e-64 -3.31618e-64 0)
(1.10091e-62 -1.6261e-62 0)
(4.15965e-61 -6.25874e-61 0)
(1.49868e-59 -2.3649e-59 0)
(5.32925e-58 -8.52005e-58 0)
(1.78995e-56 -3.02916e-56 0)
(5.97927e-55 -1.01737e-54 0)
(1.8617e-53 -3.39778e-53 0)
(5.83204e-52 -1.0579e-51 0)
(1.67076e-50 -3.31317e-50 0)
(4.90026e-49 -9.49151e-49 0)
(1.27852e-47 -2.78287e-47 0)
(3.50628e-46 -7.26046e-46 0)
(8.21259e-45 -1.98973e-44 0)
(2.10533e-43 -4.65371e-43 0)
(4.33453e-42 -1.18503e-41 0)
(1.04065e-40 -2.36529e-40 0)
(1.82245e-39 -5.05327e-39 0)
(4.12524e-38 -3.52979e-38 0)
(5.80046e-37 2.47026e-36 0)
(1.25462e-35 2.58377e-34 0)
(1.21157e-34 1.38788e-32 0)
(2.45948e-33 5.62823e-31 0)
(1.38238e-40 -1.63899e-39 0)
(-6.85061e-41 -7.96771e-41 0)
(-3.5482e-42 -6.54354e-42 0)
(-3.27186e-43 -2.06373e-43 0)
(-1.21695e-44 3.73379e-45 0)
(-1.52305e-46 8.00748e-46 0)
(1.86927e-47 1.05713e-46 0)
(3.54244e-48 6.43377e-48 0)
(2.34744e-49 4.41576e-49 0)
(1.68612e-50 2.15818e-50 0)
(8.50136e-52 1.13329e-51 0)
(4.53445e-53 4.836e-53 0)
(1.96693e-54 2.13413e-54 0)
(8.73756e-56 8.17758e-56 0)
(3.37947e-57 3.17744e-57 0)
(1.31434e-58 1.25745e-58 0)
(5.02152e-60 5.04351e-60 0)
(1.93256e-61 2.69357e-61 0)
(9.16355e-63 1.29091e-62 0)
(4.05226e-64 7.69672e-64 0)
(-2.02308e-64 3.4136e-65 0)
(-9.02012e-63 -1.19019e-64 0)
(-3.47137e-61 -4.8482e-63 0)
(-1.31163e-59 -1.86535e-61 0)
(-4.72523e-58 -7.04547e-60 0)
(-1.67991e-56 -2.53779e-58 0)
(-5.64182e-55 -9.01825e-57 0)
(-1.88415e-53 -3.02827e-55 0)
(-5.86592e-52 -1.01075e-53 0)
(-1.83701e-50 -3.14636e-52 0)
(-5.26221e-49 -9.84634e-51 0)
(-1.54278e-47 -2.8202e-49 0)
(-4.02489e-46 -8.26055e-48 0)
(-1.10327e-44 -2.15461e-46 0)
(-2.58394e-43 -5.89573e-45 0)
(-6.61979e-42 -1.37686e-43 0)
(-1.36282e-40 -3.48174e-42 0)
(-3.26908e-39 -6.75841e-41 0)
(-5.72471e-38 -1.27853e-39 0)
(-1.29426e-36 6.58397e-39 0)
(-1.81975e-35 1.92439e-36 0)
(-3.92883e-34 1.48043e-34 0)
(-3.79339e-33 7.65838e-33 0)
(-7.67488e-32 3.03306e-31 0)
(7.24219e-42 -6.20962e-41 0)
(-3.57502e-42 -3.20379e-42 0)
(-1.85176e-43 -2.94106e-43 0)
(-1.98616e-44 -1.09113e-44 0)
(-8.24246e-46 -1.32717e-46 0)
(-3.08831e-47 1.70627e-47 0)
(-3.24626e-49 3.20225e-48 0)
(8.79215e-50 2.11891e-49 0)
(7.40123e-51 1.52026e-50 0)
(5.98618e-52 7.66154e-52 0)
(3.1654e-53 4.08468e-53 0)
(1.74379e-54 1.77139e-54 0)
(7.69352e-56 7.86707e-56 0)
(3.45496e-57 3.04268e-57 0)
(1.34418e-58 1.18333e-58 0)
(5.23287e-60 4.5228e-60 0)
(1.93797e-61 1.74103e-61 0)
(7.18213e-63 8.26078e-63 0)
(3.02097e-64 3.91694e-64 0)
(8.84514e-66 2.22017e-65 0)
(-1.26595e-64 5.90744e-66 0)
(-5.09729e-63 1.94899e-64 0)
(-1.96105e-61 7.8133e-63 0)
(-7.40639e-60 3.00677e-61 0)
(-2.66763e-58 1.13629e-59 0)
(-9.47882e-57 4.09388e-58 0)
(-3.18269e-55 1.4558e-56 0)
(-1.06218e-53 4.88964e-55 0)
(-3.30618e-52 1.63345e-53 0)
(-1.03452e-50 5.08603e-52 0)
(-2.96278e-49 1.59342e-50 0)
(-8.67706e-48 4.56511e-49 0)
(-2.26323e-46 1.33912e-47 0)
(-6.19523e-45 3.49426e-46 0)
(-1.45065e-43 9.58515e-45 0)
(-3.70963e-42 2.24576e-43 0)
(-7.63524e-41 5.76138e-42 0)
(-1.82695e-39 1.18906e-40 0)
(-3.1984e-38 2.87591e-39 0)
(-7.20546e-37 5.20304e-38 0)
(-1.01266e-35 1.27238e-36 0)
(-2.1745e-34 2.39339e-35 0)
(-2.09736e-33 7.09112e-34 0)
(-4.20237e-32 1.55181e-32 0)
(-3.54881e-36 3.05958e-31 0)
(2.26846e-43 -3.58821e-42 0)
(-1.11728e-43 -1.85936e-43 0)
(-6.04449e-45 -1.99407e-44 0)
(-6.75428e-46 -8.31553e-46 0)
(-2.98431e-47 -3.16123e-47 0)
(-1.3327e-48 -3.66694e-49 0)
(-2.9691e-50 8.49482e-50 0)
(1.51515e-51 7.26128e-51 0)
(1.76917e-52 5.90678e-52 0)
(1.594e-53 3.13215e-53 0)
(8.81736e-55 1.72763e-54 0)
(4.97707e-56 7.63094e-56 0)
(2.23655e-57 3.42795e-57 0)
(1.01332e-58 1.33446e-58 0)
(3.97903e-60 5.19333e-60 0)
(1.55348e-61 1.91372e-61 0)
(5.71944e-63 6.08154e-63 0)
(2.56846e-64 2.90549e-64 0)
(1.02178e-65 9.77142e-64 0)
(-2.3396e-65 7.43089e-65 0)
(-1.04358e-65 1.17834e-65 0)
(-3.45854e-64 1.14285e-64 0)
(-1.3291e-62 4.5587e-63 0)
(-5.00429e-61 1.75375e-61 0)
(-1.80128e-59 6.62332e-60 0)
(-6.37338e-58 2.38552e-58 0)
(-2.1382e-56 8.47641e-57 0)
(-7.09478e-55 2.84608e-55 0)
(-2.20601e-53 9.49873e-54 0)
(-6.84844e-52 2.95664e-52 0)
(-1.95868e-50 9.25206e-51 0)
(-5.67483e-49 2.64985e-49 0)
(-1.47748e-47 7.76143e-48 0)
(-3.98466e-46 2.02462e-46 0)
(-9.30645e-45 5.54302e-45 0)
(-2.33068e-43 1.29818e-43 0)
(-4.77819e-42 3.32065e-42 0)
(-1.10931e-40 6.83759e-41 0)
(-1.929e-39 1.63733e-39 0)
(-4.15108e-38 2.87302e-38 0)
(-5.75733e-37 6.50312e-37 0)
(-1.1464e-35 9.31529e-36 0)
(-1.07194e-34 2.04898e-34 0)
(-1.85073e-33 2.17887e-33 0)
(-1.76504e-37 4.27403e-32 0)
(-7.61891e-43 -9.65267e-42 0)
(3.75135e-43 -4.98047e-43 0)
(2.02665e-44 -5.22763e-44 0)
(2.25523e-45 -2.13959e-45 0)
(9.91868e-47 -7.32031e-47 0)
(4.33305e-48 -3.08819e-49 0)
(9.08416e-50 2.79922e-49 0)
(-5.80262e-51 2.20886e-50 0)
(-6.31492e-52 1.73732e-51 0)
(-5.57261e-53 9.0841e-53 0)
(-3.06051e-54 4.9652e-54 0)
(-1.71848e-55 2.18059e-55 0)
(-7.69877e-57 9.75695e-57 0)
(-3.47837e-58 3.78692e-58 0)
(-1.36323e-59 1.46417e-59 0)
(-5.30335e-61 5.08438e-61 0)
(-1.85008e-62 -2.41071e-62 0)
(1.51098e-63 5.47683e-64 0)
(6.18468e-65 4.15372e-62 0)
(-1.0637e-63 3.16067e-63 0)
(-8.21799e-65 3.90809e-64 0)
(-4.55209e-65 3.14265e-65 0)
(-1.38518e-63 3.11299e-64 0)
(-5.2729e-62 1.19052e-62 0)
(-1.91893e-60 4.48237e-61 0)
(-6.86097e-59 1.61338e-59 0)
(-2.3246e-57 5.70851e-58 0)
(-7.78574e-56 1.91514e-56 0)
(-2.44137e-54 6.35473e-55 0)
(-7.64015e-53 1.97593e-53 0)
(-2.19942e-51 6.13447e-52 0)
(-6.41289e-50 1.75457e-50 0)
(-1.676e-48 5.08388e-49 0)
(-4.53871e-47 1.32376e-47 0)
(-1.05961e-45 3.57054e-46 0)
(-2.65625e-44 8.3407e-45 0)
(-5.40471e-43 2.08926e-43 0)
(-1.24996e-41 4.2847e-42 0)
(-2.12784e-40 9.95177e-41 0)
(-4.52512e-39 1.7325e-39 0)
(-5.95846e-38 3.73555e-38 0)
(-1.1588e-36 5.21901e-37 0)
(-9.54986e-36 1.04899e-35 0)
(-1.63834e-34 1.01751e-34 0)
(-1.78477e-38 1.74808e-33 0)
(-2.13018e-41 -1.85554e-40 0)
(1.05162e-41 -9.55583e-42 0)
(5.44347e-43 -8.6765e-43 0)
(5.73162e-44 -3.17609e-44 0)
(2.34686e-45 -2.88671e-46 0)
(8.03077e-47 5.74821e-47 0)