/*--------------------------------*- C++ -*----------------------------------*\
| =========                 |                                                 |
| \\      /  F ield         | OpenFOAM: The Open Source CFD Toolbox           |
|  \\    /   O peration     | Version:  2.4.0                                 |
|   \\  /    A nd           | Web:      www.OpenFOAM.org                      |
|    \\/     M anipulation  |                                                 |
\*---------------------------------------------------------------------------*/
FoamFile
{
    version     2.0;
    format      ascii;
    class       surfaceScalarField;
    location    "1";
    object      phi;
}
// * * * * * * * * * * * * * * * * * * * * * * * * * * * * * * * * * * * * * //

dimensions      [0 3 -1 0 0 0 0];

internalField   nonuniform List<scalar> 
3742
(
-5.91983e-36
3.03064e-36
-1.07868e-36
4.71671e-37
-1.67854e-37
7.02501e-38
-2.49926e-38
9.31202e-39
-3.38377e-39
1.1859e-39
-4.36976e-40
1.40742e-40
-5.27638e-41
1.6062e-41
-6.09488e-42
1.73942e-42
-6.68179e-43
1.8149e-43
-7.03663e-44
1.81432e-44
-7.09717e-45
1.75225e-45
-6.90338e-46
1.63141e-46
-6.45495e-47
1.47138e-47
-3.95786e-48
1.2699e-48
2.18336e-47
-6.25461e-50
2.52192e-46
-1.88276e-48
2.74832e-45
-2.04202e-47
2.88251e-44
-2.15167e-46
2.91166e-43
-2.215e-45
2.81837e-42
-2.21669e-44
2.61936e-41
-2.15982e-43
2.31695e-40
-2.03256e-42
1.96087e-39
-1.85335e-41
1.56264e-38
-1.61685e-40
-1.35927e-39
-5.1014e-34
7.49858e-36
-2.1596e-33
4.55704e-35
-1.91931e-33
2.08399e-34
-4.43871e-32
2.40711e-35
2.83354e-32
-4.02471e-34
1.45836e-32
-9.74395e-35
-1.32608e-32
2.42945e-34
7.79247e-34
2.12781e-35
8.52421e-34
-1.45089e-34
1.65946e-32
-1.00647e-34
2.67611e-33
-3.51533e-35
1.74101e-32
-1.82361e-34
2.03449e-33
3.06335e-36
1.61519e-32
8.4622e-35
-1.39859e-32
8.87057e-35
1.42208e-32
3.28922e-35
-1.52534e-32
7.11552e-35
-5.69836e-34
5.52762e-37
-6.91191e-34
-6.74899e-35
-1.67818e-34
-1.46475e-35
-2.78282e-35
-3.03064e-36
-4.83851e-36
-4.71671e-37
-7.15996e-37
-7.02501e-38
-1.03473e-37
-9.31202e-39
-1.36147e-38
-1.1859e-39
-1.72308e-39
-1.40742e-40
-2.04233e-40
-1.6062e-41
-2.32532e-41
-1.73942e-42
-2.51597e-42
-1.8149e-43
-2.62099e-43
-1.81432e-44
-2.61758e-44
-1.75225e-45
-2.52466e-45
-1.63142e-46
-2.34787e-46
-1.47273e-47
-2.07779e-47
-1.40925e-48
2.99864e-48
-1.33608e-48
5.83158e-47
-1.16724e-47
6.67164e-46
-1.06917e-46
7.22285e-45
-9.39994e-46
7.43421e-44
-7.99139e-45
7.26816e-43
-6.52196e-44
6.75938e-42
-5.20485e-43
5.94772e-41
-4.02076e-42
4.96722e-40
-3.10685e-41
3.88961e-39
-2.35368e-40
-1.81571e-39
-9.70765e-35
9.9249e-36
-3.81688e-34
5.54607e-35
-1.614e-33
2.45338e-34
-1.7534e-33
2.68727e-35
6.59316e-34
-4.73089e-34
1.25258e-33
-1.15612e-34
-1.718e-34
2.84548e-34
-2.80213e-34
2.56204e-35
5.8426e-34
-1.70826e-34
1.19024e-33
-1.18573e-34
1.33017e-33
-3.36261e-35
1.33254e-33
-1.29146e-35
1.21567e-33
1.27355e-35
6.84146e-34
1.01078e-34
1.29645e-34
1.05195e-34
-8.33361e-35
3.98645e-35
-5.21615e-34
8.3845e-35
-5.27537e-34
6.84623e-37
-1.2233e-34
-7.9351e-35
-3.19745e-35
-1.77257e-35
-5.91983e-36
-3.7073e-36
-1.07868e-36
-5.8358e-37
-1.67854e-37
-8.74795e-38
-2.49926e-38
-1.16692e-38
-3.38377e-39
-1.49264e-39
-4.36976e-40
-1.77882e-40
-5.27638e-41
-2.03662e-41
-6.09488e-42
-2.21215e-42
-6.68179e-43
-2.31388e-43
-7.03663e-44
-2.31844e-44
-7.09717e-45
-2.24354e-45
-6.90368e-46
-2.0927e-46
-6.4865e-47
-1.89865e-47
-7.27604e-48
-2.46953e-48
-1.23598e-47
-8.05623e-48
-9.23226e-47
-7.32913e-47
-6.57269e-46
-6.4757e-46
-4.05299e-45
-5.40109e-45
-1.99897e-44
-4.26314e-44
-4.36735e-44
-3.11726e-43
4.99269e-43
-2.12985e-42
9.6787e-42
-1.29964e-41
1.0282e-40
-7.26678e-41
8.84836e-40
-3.34129e-40
-1.41098e-39
-1.59332e-35
6.84502e-36
-4.38981e-35
1.34879e-35
-1.36577e-34
4.48671e-35
-1.42603e-34
3.46416e-36
4.54704e-35
-8.34554e-35
9.61628e-35
-2.15548e-35
-6.28894e-36
4.91016e-35
-1.26591e-35
5.14563e-36
5.49963e-35
-3.05302e-35
1.08146e-34
-2.223e-35
1.23941e-34
-6.98622e-36
1.22396e-34
-8.05376e-36
1.09436e-34
2.75811e-36
6.42372e-35
1.85617e-35
1.49858e-35
1.94902e-35
-7.54366e-36
8.32639e-36
-4.43781e-35
1.50289e-35
-4.54289e-35
1.60806e-37
-1.37031e-35
-1.40269e-35
-4.89675e-36
-3.6726e-36
-1.0513e-36
-8.16623e-37
-2.14377e-37
-1.36279e-37
-3.57881e-38
-2.1157e-38
-5.61473e-39
-2.914e-39
-7.8908e-40
-3.81326e-40
-1.04873e-40
-4.638e-41
-1.29466e-41
-5.39498e-42
-1.52213e-42
-5.94338e-43
-1.69258e-43
-6.2892e-44
-1.80332e-44
-6.36733e-45
-1.8364e-45
-6.21629e-46
-1.80196e-46
-5.84911e-47
-1.82997e-47
-5.81657e-48
-1.35985e-47
-5.54398e-48
-1.05807e-46
-4.96029e-47
-8.73443e-46
-4.62275e-46
-6.80642e-45
-4.11981e-45
-4.89931e-44
-3.4699e-44
-3.26753e-43
-2.76852e-43
-1.93112e-42
-2.04891e-42
-1.02011e-41
-1.41623e-41
-4.24702e-41
-8.72197e-41
-1.38729e-40
-4.86232e-40
-1.25066e-40
-2.14457e-39
-7.73488e-39
-1.3148e-35
8.93355e-36
-1.2776e-35
8.29788e-36
-1.04107e-35
9.33974e-36
-8.85092e-36
7.50108e-37
1.71188e-36
-1.45427e-35
4.87009e-36
-3.84257e-36
3.27657e-37
8.47891e-36
4.8723e-37
9.17537e-37
4.09517e-36
-5.3592e-36
7.47218e-36
-3.9994e-36
8.80188e-36
-1.37515e-36
8.49241e-36
-1.67525e-36
7.41572e-36
4.53166e-37
4.61527e-36
3.28274e-36
1.32535e-36
3.48188e-36
-4.15694e-37
1.5512e-36
-2.73826e-36
2.65265e-36
-2.87813e-36
3.34526e-38
-1.1557e-36
-2.4532e-36
-5.70039e-37
-6.78432e-37
-1.40035e-37
-1.60757e-37
-3.11263e-38
-2.81543e-38
-5.5007e-39
-4.55899e-39
-8.97548e-40
-6.48909e-40
-1.29986e-40
-8.72068e-41
-1.76687e-41
-1.08328e-41
-2.2217e-42
-1.28169e-42
-2.6505e-43
-1.43161e-43
-2.98403e-44
-1.53217e-44
-3.21195e-45
-1.5659e-45
-3.3009e-46
-1.54105e-46
-3.35764e-47
-1.4852e-47
-1.25871e-47
-4.19584e-48
-8.83859e-47
-2.94087e-47
-7.80407e-46
-2.88561e-46
-6.52708e-45
-2.71924e-45
-5.15968e-44
-2.45288e-44
-3.78048e-43
-2.09585e-43
-2.57857e-42
-1.70123e-42
-1.57071e-41
-1.28576e-41
-8.6544e-41
-9.11689e-41
-3.87262e-40
-5.79477e-40
-1.45653e-39
-3.35342e-39
-2.97468e-39
-1.54659e-38
-5.83737e-38
-1.97376e-34
1.05091e-34
-1.55029e-35
9.89641e-36
-1.18185e-35
1.16186e-36
-2.87739e-36
-7.72704e-38
-5.47254e-37
-1.97269e-36
-9.03198e-38
-5.29331e-37
1.08864e-37
1.10778e-36
2.33805e-37
1.24969e-37
2.60658e-37
-7.1409e-37
3.86987e-37
-5.46402e-37
4.85199e-37
-2.02665e-37
4.2633e-37
-2.39895e-37
3.46814e-37
5.78454e-38
2.58483e-37
4.41255e-37
1.08293e-37
4.72339e-37
1.62458e-39
2.19829e-37
-8.8858e-38
3.55119e-37
-1.0697e-37
5.18925e-39
-8.67161e-38
-3.25341e-37
-6.61446e-38
-9.54683e-38
-1.81559e-38
-2.37608e-38
-4.34662e-39
-4.3422e-39
-8.03592e-40
-7.27146e-40
-1.3562e-40
-1.06442e-40
-2.01383e-41
-1.4621e-41
-2.79183e-42
-1.84967e-42
-3.56619e-43
-2.22062e-43
-4.30928e-44
-2.51131e-44
-4.90323e-45
-2.71532e-45
-5.32492e-46
-2.79979e-46
-5.56983e-47
-2.78593e-47
-1.14738e-47
-3.79916e-48
-5.92698e-47
-1.26133e-47
-5.50333e-46
-1.27735e-46
-4.92603e-45
-1.27067e-45
-4.1731e-44
-1.2118e-44
-3.34948e-43
-1.10825e-43
-2.50156e-42
-9.63266e-43
-1.74657e-41
-7.97655e-42
-1.09784e-40
-6.1865e-41
-6.29616e-40
-4.52047e-40
-2.99932e-39
-2.99222e-39
-1.23429e-38
-1.81e-38
-3.18603e-38
-8.89372e-38
-3.54865e-37
-1.093e-35
1.83151e-35
-9.79729e-36
1.74598e-35
-2.30315e-36
9.68844e-37
-5.47757e-37
-9.04871e-38
-1.32939e-37
-2.95113e-37
-5.43445e-38
-7.70007e-38
1.42589e-38
1.41555e-37
3.54149e-38
1.61325e-38
1.5396e-38
-9.31449e-38
1.28582e-38
-7.25803e-38
1.95734e-38
-2.89947e-38
1.15288e-38
-3.65637e-38
5.88277e-39
6.35045e-39
1.07596e-38
5.75791e-38
8.69973e-39
6.22669e-38
3.46465e-39
2.96783e-38
4.28972e-39
4.65089e-38
2.18535e-39
7.5414e-40
-6.23264e-39
-4.23082e-38
-7.10512e-39
-1.28113e-38
-2.11187e-39
-3.32485e-39
-5.31716e-40
-6.27915e-40
-1.01701e-40
-1.08243e-40
-1.76044e-41
-1.62162e-41
-2.66739e-42
-2.27018e-42
-3.75739e-43
-2.91664e-43
-4.86404e-44
-3.54612e-44
-5.94215e-45
-4.05273e-45
-6.82493e-46
-4.42048e-46
-7.50057e-47
-4.59523e-47
-1.11372e-47
-4.98951e-48
-3.52209e-47
-5.00332e-48
-3.40607e-46
-4.93548e-47
-3.22306e-45
-5.14187e-46
-2.92049e-44
-5.17212e-45
-2.51011e-43
-4.99482e-44
-2.05015e-42
-4.63318e-43
-1.56451e-41
-4.09504e-42
-1.1225e-40
-3.45753e-41
-7.31328e-40
-2.74665e-40
-4.4033e-39
-2.06672e-39
-2.25358e-38
-1.42131e-38
-1.0328e-37
-9.05026e-38
-3.28098e-37
-4.7697e-37
-2.13645e-36
-7.81304e-37
2.94879e-34
-1.24043e-36
2.07902e-35
-3.42679e-37
2.35136e-36
-1.01185e-37
2.02558e-37
-2.60777e-38
-1.54389e-38
-1.01414e-38
-7.36271e-39
1.36426e-39
1.63186e-38
4.38197e-39
1.88978e-39
9.68184e-40
-1.07627e-38
-1.94027e-40
-8.53648e-39
2.83248e-40
-3.62971e-39
-7.87798e-40
-4.69702e-39
-1.23984e-39
6.10806e-40
1.60474e-40
6.65886e-39
7.64155e-40
7.26885e-39
5.76548e-40
3.54688e-39
1.26491e-39
5.39365e-39
1.02547e-39
9.56459e-41
-4.89975e-40
-4.87394e-39
-7.71052e-40
-1.52366e-39
-2.40623e-40
-4.08524e-40
-6.27597e-41
-7.93169e-41
-1.2302e-41
-1.39923e-41
-2.17211e-42
-2.13722e-42
-3.34395e-43
-3.03926e-43
-4.77246e-44
-3.95681e-44
-6.24594e-45
-4.86335e-45
-7.70019e-46
-5.61017e-46
-8.92396e-47
-6.16756e-47
-1.11103e-47
-6.50629e-48
-1.49154e-47
-1.30922e-48
-1.43996e-46
-7.53541e-48
-1.43719e-45
-8.16647e-47
-1.37698e-44
-8.62706e-46
-1.2655e-43
-8.78926e-45
-1.107e-42
-8.62299e-44
-9.23096e-42
-8.11629e-43
-7.23806e-41
-7.32155e-42
-5.36602e-40
-6.29443e-41
-3.66125e-39
-5.15933e-40
-2.335e-38
-3.99225e-39
-1.30848e-37
-2.91896e-38
-6.73861e-37
-1.95831e-37
-2.67546e-36
-1.18181e-36
-5.6926e-36
-2.98193e-36
-8.20314e-35
1.4586e-36
7.60568e-36
2.15337e-37
2.211e-36
1.19813e-38
3.84659e-37
-4.68168e-39
6.4637e-38
-2.38181e-39
9.17186e-39
-1.527e-40
3.27049e-39
4.18928e-40
4.0316e-40
6.34932e-41
-1.1854e-39
-8.51888e-41
-9.70729e-40
-4.91665e-41
-4.39241e-40
-1.74079e-40
-5.97457e-40
-2.13996e-40
4.93569e-41
-2.97214e-41
7.45691e-40
6.9854e-41
8.22102e-40
6.8863e-41
4.07579e-40
1.64951e-40
6.07753e-40
1.39606e-40
1.15173e-41
-4.14784e-41
-5.46356e-40
-7.90595e-41
-1.74418e-40
-2.55026e-41
-4.80066e-41
-6.81773e-42
-9.52057e-42
-1.36253e-42
-1.71125e-42
-2.44383e-43
-2.65464e-43
-3.81267e-44
-3.82425e-44
-5.5014e-45
-5.03326e-45
-7.26829e-46
-6.24283e-46
-9.03551e-47
-7.25745e-47
-1.09873e-47
-8.03828e-48
-6.33566e-48
-9.46419e-49
-5.61372e-47
-1.29423e-48
-5.85997e-46
-1.39421e-47
-5.91475e-45
-1.55455e-46
-5.73488e-44
-1.68155e-45
-5.34162e-43
-1.75313e-44
-4.74543e-42
-1.7686e-43
-4.02827e-41
-1.71002e-42
-3.22602e-40
-1.60042e-41
-2.45299e-39
-1.42813e-40
-1.7253e-38
-1.24549e-39
-1.14432e-37
-1.03411e-38
-6.70685e-37
-8.57017e-38
-3.71333e-36
-6.56259e-37
-1.57376e-35
-4.85779e-36
-2.72109e-35
-1.43055e-35
5.76573e-36
-7.91517e-36
-1.37277e-36
-1.92929e-36
1.03541e-36
-4.92881e-37
2.54856e-37
-9.37065e-38
5.28349e-38
-1.7181e-38
8.25342e-39
-2.67238e-39
1.41945e-39
-3.52372e-40
1.8469e-40
-4.81176e-41
-1.05589e-40
-1.73837e-41
-1.00505e-40
-8.50633e-42
-4.86829e-41
-2.19365e-41
-6.86596e-41
-2.57374e-41
3.23394e-42
-5.11628e-42
7.74559e-41
6.61028e-42
8.61952e-41
7.36635e-42
4.33874e-41
1.80386e-41
6.34968e-41
1.54407e-41
1.27398e-42
-3.78085e-42
-5.68137e-41
-7.94571e-42
-1.85104e-41
-2.6176e-42
-5.20215e-42
-7.12595e-43
-1.05039e-42
-1.4453e-43
-1.91703e-43
-2.62504e-44
-3.01324e-44
-4.13948e-45
-4.38845e-45
-6.02709e-46
-5.83053e-46
-8.02534e-47
-7.2889e-47
-1.00858e-47
-8.53169e-48
-1.7407e-48
-9.49564e-49
-6.53469e-48
-1.02733e-49
-7.03754e-47
-5.31865e-50
-7.48008e-46
-6.81536e-49
-7.66662e-45
-9.67684e-48
-7.57505e-44
-1.30157e-46
-7.1749e-43
-1.63751e-45
-6.52275e-42
-2.02345e-44
-5.63642e-41
-2.43613e-43
-4.64934e-40
-3.09172e-42
-3.59094e-39
-4.11428e-41
-2.62356e-38
-5.99781e-40
-1.73064e-37
-8.76146e-39
-1.05107e-36
-1.23348e-37
-5.08451e-36
-1.51182e-36
-2.03354e-35
-1.54415e-35
-1.16152e-34
-2.19478e-34
-6.76432e-36
-1.61412e-35
-2.44678e-36
-1.26699e-35
-1.42095e-36
-2.92384e-36
-2.82755e-37
-4.89664e-37
-5.41068e-38
-8.36963e-38
-8.26933e-39
-1.23772e-38
-1.18947e-39
-1.76903e-39
-1.57138e-40
-2.32173e-40
-3.28947e-41
-3.02968e-41
-1.29057e-41
-4.25541e-42
-5.53068e-42
-2.67228e-42
-7.69419e-42
-2.69932e-42
9.83385e-44
-5.89471e-43
7.76967e-42
6.09542e-43
8.73087e-42
7.23192e-43
4.44607e-42
1.77377e-42
6.41842e-42
1.52226e-42
1.34617e-43
-3.43463e-43
-5.7212e-42
-7.57396e-43
-1.89241e-42
-2.53765e-43
-5.40858e-43
-7.00716e-44
-1.10767e-43
-1.43901e-44
-2.04687e-44
-2.64108e-45
-3.25188e-45
-4.20335e-46
-4.77891e-46
-6.16771e-47
-6.399e-47
-8.27942e-48
-8.05213e-48
-1.17733e-48
-9.45283e-49
-1.74389e-48
-7.3106e-50
-1.86281e-47
3.87598e-49
-2.07007e-46
4.69616e-48
-2.23054e-45
5.37272e-47
-2.31853e-44
5.94945e-46
-2.32844e-43
6.37969e-45
-2.2429e-42
6.58833e-44
-2.08128e-41
6.55214e-43
-1.83633e-40
6.19019e-42
-1.55677e-39
5.50256e-41
-1.23498e-38
4.34872e-40
-9.38861e-38
2.71792e-39
-6.41854e-37
4.4264e-39
-4.16759e-36
-2.2023e-37
-2.11432e-35
-4.82749e-36
-9.89889e-35
-6.32191e-35
-6.08905e-34
-1.3728e-35
-8.00608e-36
-8.69031e-36
-6.79674e-36
-2.10502e-36
-2.11146e-36
-5.30753e-37
-3.79769e-37
-9.95448e-38
-6.87852e-38
-1.79821e-38
-1.03666e-38
-2.8081e-39
-1.50862e-39
-4.16072e-40
-1.99467e-40
-5.63518e-41
-2.65557e-41
-7.35217e-42
-4.02643e-42
-9.48045e-43
-8.74764e-43
-3.23375e-43
-8.34645e-43
-2.69854e-43
-1.52546e-44
-6.08667e-44
7.3683e-43
5.50107e-44
8.36176e-43
6.78849e-44
4.30499e-43
1.66076e-43
6.13601e-43
1.42558e-43
1.33755e-44
-3.09725e-44
-5.45081e-43
-7.0032e-44
-1.82897e-43
-2.3764e-44
-5.29984e-44
-6.63675e-45
-1.09878e-44
-1.3767e-45
-2.0517e-45
-2.54854e-46
-3.28976e-46
-4.08703e-47
-4.87209e-47
-6.03544e-48
-6.5684e-48
-8.09951e-49
-8.31149e-49
-5.69787e-50
-9.62227e-50
5.27087e-49
1.55908e-50
6.15095e-48
3.22197e-49
6.79457e-47
3.81357e-48
7.26373e-46
4.36868e-47
7.48427e-45
4.84537e-46
7.43965e-44
5.20521e-45
7.08475e-43
5.3861e-44
6.48399e-42
5.36999e-43
5.63304e-41
5.08988e-42
4.68225e-40
4.54968e-41
3.63376e-39
3.63514e-40
2.67889e-38
2.34433e-39
1.77087e-37
5.32437e-39
1.08666e-36
-1.58747e-37
5.19685e-36
-3.74235e-36
2.09709e-35
-5.0521e-35
-5.03718e-34
-1.59643e-36
-1.10526e-34
-2.4042e-37
-9.62516e-36
-1.39469e-37
-1.32771e-36
-6.01558e-38
-1.5921e-37
-1.45216e-38
-2.04246e-38
-3.10036e-39
-2.66155e-39
-5.36828e-40
-3.66466e-40
-8.56353e-41
-4.84562e-41
-1.22158e-41
-6.35322e-42
-1.64416e-42
-8.5125e-43
-2.09519e-43
-1.39643e-43
-4.44518e-44
-8.98283e-44
-2.64834e-44
-4.18944e-45
-5.94221e-45
6.74612e-44
4.75137e-45
7.73724e-44
6.06145e-45
4.01967e-44
1.47691e-44
5.67246e-44
1.26696e-44
1.27566e-45
-2.69208e-45
-5.02482e-44
-6.19051e-45
-1.7054e-44
-2.12456e-45
-4.998e-45
-5.98992e-46
-1.04661e-45
-1.25345e-46
-1.97122e-46
-2.3375e-47
-3.185e-47
-3.77345e-48
-4.74753e-48
-5.58452e-49
-6.43725e-49
-5.14182e-50
-8.20363e-50
2.88468e-49
-1.1934e-50
3.5209e-48
-2.8622e-50
4.04201e-47
-3.34352e-49
4.49282e-46
-3.94266e-48
4.83822e-45
-4.51747e-47
5.02524e-44
-5.01152e-46
5.04212e-43
-5.38493e-45
4.85128e-42
-5.573e-44
4.49552e-41
-5.55665e-43
3.95955e-40
-5.26492e-42
3.3498e-39
-4.6996e-41
2.65043e-38
-3.73751e-40
2.00863e-37
-2.37132e-39
1.36785e-36
-4.46001e-39
8.8397e-36
1.8134e-37
4.45917e-35
4.10574e-36
2.07171e-34
5.48601e-35
5.43295e-34
3.04667e-37
-1.10317e-35
-5.57247e-37
-6.55051e-36
-1.24654e-37
-8.3983e-37
-3.13263e-38
-8.63939e-38
-5.68451e-39
-8.49219e-39
-1.01231e-39
-8.65476e-40
-1.56563e-40
-1.01191e-40
-2.31232e-41
-1.24794e-41
-3.12722e-42
-1.58369e-42
-4.03393e-43
-1.98959e-43
-4.91188e-44
-2.70345e-44
-7.42441e-45
-1.00985e-44
-2.73116e-45
-7.27691e-46
-5.79176e-46
5.89387e-45
3.95387e-46
6.8433e-45
5.22629e-46
3.58606e-45
1.26981e-45
5.01428e-45
1.08855e-45
1.159e-46
-2.27825e-46
-4.4305e-45
-5.30383e-46
-1.51986e-45
-1.83729e-46
-4.49671e-46
-5.22087e-47
-9.49936e-47
-1.10053e-47
-1.80236e-47
-2.06499e-48
-2.93169e-48
-3.35214e-49
-4.39448e-49
-4.97554e-50
-5.98992e-50
-3.5138e-51
-7.84929e-51
3.89303e-50
-3.48793e-51
4.67079e-49
-3.2203e-50
5.32338e-48
-3.89439e-49
5.87128e-47
-4.5893e-48
6.26723e-46
-5.25281e-47
6.44705e-45
-5.82057e-46
6.39656e-44
-6.24599e-45
6.07903e-43
-6.45438e-44
5.54984e-42
-6.42272e-43
4.80864e-41
-6.06847e-42
3.98323e-40
-5.38942e-41
3.07982e-39
-4.23965e-40
2.25835e-38
-2.60286e-39
1.48437e-37
-3.05615e-39
9.01585e-37
2.37485e-37
4.26596e-36
5.03563e-36
1.66817e-35
6.53918e-35
6.26945e-34
-3.43299e-38
-1.1132e-35
3.7857e-38
-6.76543e-36
6.69839e-39
-8.24771e-37
6.6037e-40
-7.74521e-38
-3.92083e-41
-6.11e-39
-3.31191e-41
-4.35719e-40
-8.34974e-42
-3.19581e-41
-1.62219e-42
-2.68433e-42
-2.61705e-43
-2.71998e-43
-3.81991e-44
-3.06555e-44
-5.08699e-45
-3.81046e-45
-7.79634e-46
-1.07364e-45
-2.53063e-46
-9.59681e-47
-5.27658e-47
4.97978e-46
3.16878e-47
5.85765e-46
4.33263e-47
3.09271e-46
1.04995e-46
4.29206e-46
8.99427e-47
1.01496e-47
-1.85854e-47
-3.78422e-46
-4.37408e-47
-1.30982e-46
-1.52819e-47
-3.90607e-47
-4.37185e-48
-8.31254e-48
-9.27529e-49
-1.58695e-48
-1.74973e-49
-2.5959e-49
-2.86161e-50
-3.90955e-50
-5.19341e-51
-5.34857e-51
-1.20415e-50
-6.63589e-52
-1.395e-49
2.03966e-52
-1.64865e-48
3.58914e-51
-1.89382e-47
4.41087e-50
-2.10725e-46
5.25617e-49
-2.27198e-45
6.09049e-48
-2.36298e-44
6.84063e-47
-2.37461e-43
7.46013e-46
-2.28874e-42
7.86915e-45
-2.1253e-41
8.08705e-44
-1.8763e-40
8.10642e-43
-1.59185e-39
8.16524e-42
-1.26352e-38
8.46548e-41
-9.61315e-38
9.5602e-40
-6.57455e-37
1.15703e-38
-4.27162e-36
1.44551e-37
-2.16651e-35
1.66586e-36
-1.01428e-34
1.64596e-35
1.21857e-34
-4.09094e-37
-1.16554e-34
5.35924e-37
-9.91545e-36
1.07586e-37
-1.11255e-36
2.23114e-38
-9.48768e-38
3.33011e-39
-5.91989e-39
4.84566e-40
-2.13233e-40
6.19487e-41
1.18949e-41
7.65586e-42
3.64472e-42
8.76866e-43
5.50568e-43
9.67725e-44
6.80271e-44
1.01011e-44
7.72252e-45
1.0039e-45
7.69344e-46
8.28363e-47
7.93963e-47
5.30629e-48
4.94026e-47
3.36371e-48
4.91218e-47
3.56073e-48
2.57464e-47
8.42896e-48
3.53838e-47
7.21104e-48
8.54273e-49
-1.47398e-48
-3.11305e-47
-3.50151e-48
-1.08653e-47
-1.23229e-48
-3.2621e-48
-3.54542e-49
-6.98752e-49
-7.56338e-50
-1.34111e-49
-1.43335e-50
-2.20468e-50
-2.36853e-51
-3.33358e-51
-6.16019e-52
-4.51863e-52
-3.31882e-51
2.12147e-53
-3.95828e-50
1.01783e-51
-4.6517e-49
1.27722e-50
-5.30799e-48
1.54972e-49
-5.86367e-47
1.8266e-48
-6.27066e-46
2.09123e-47
-6.46408e-45
2.31834e-46
-6.42918e-44
2.4901e-45
-6.12716e-43
2.57896e-44
-5.61256e-42
2.58125e-43
-4.88181e-41
2.47788e-42
-4.06312e-40
2.29642e-41
-3.15892e-39
2.03039e-40
-2.33264e-38
1.74343e-39
-1.54544e-37
1.42426e-38
-9.48897e-37
1.14722e-37
-4.54287e-36
8.55564e-37
-1.81723e-35
6.09493e-36
3.33552e-35
4.98818e-37
-7.58043e-36
-6.70922e-37
-5.87452e-36
-1.44823e-37
-6.42081e-37
-3.20158e-38
-4.80383e-38
-5.14217e-39
-1.14679e-39
-8.06488e-40
3.25423e-40
-1.11696e-40
8.28365e-41
-1.49578e-41
1.31812e-41
-1.86e-42
1.82093e-42
-2.22726e-43
2.27302e-43
-2.52474e-44
2.67862e-44
-2.75747e-45
2.97303e-45
-2.88993e-46
3.16427e-46
-2.93094e-47
3.54954e-47
-2.61945e-48
7.02267e-48
7.29934e-51
2.36309e-48
6.29513e-49
2.85635e-48
5.56977e-49
7.18508e-50
-1.13344e-49
-2.48522e-48
-2.71178e-49
-8.73738e-49
-9.60738e-50
-2.6382e-49
-2.77773e-50
-5.6827e-50
-5.95472e-51
-1.09561e-50
-1.13286e-51
-1.80872e-51
-1.87097e-52
-2.74127e-52
-3.85896e-53
-3.30541e-53
-1.32935e-52
5.7785e-53
-1.54198e-51
8.02648e-52
-1.78461e-50
1.00298e-50
-2.00099e-49
1.21952e-49
-2.16627e-48
1.44076e-48
-2.26243e-47
1.6538e-47
-2.26888e-46
1.83866e-46
-2.18379e-45
1.9813e-45
-2.00212e-44
2.0594e-44
-1.74931e-43
2.06999e-43
-1.43719e-42
1.99677e-42
-1.11348e-41
1.86209e-41
-7.92269e-41
1.6594e-40
-5.2206e-40
1.44137e-39
-2.99904e-39
1.19641e-38
-1.5354e-38
9.85716e-38
-5.87857e-38
7.55312e-37
-1.7906e-37
5.53709e-36
3.11175e-35
4.33818e-37
-7.11487e-36
-7.65753e-37
-1.45939e-36
-1.79638e-37
8.16724e-38
-4.49951e-38
5.71541e-38
-8.12527e-39
1.53042e-38
-1.42632e-39
2.71881e-39
-2.17883e-40
4.28693e-40
-3.17779e-41
5.94414e-41
-4.252e-42
7.76356e-42
-5.4238e-43
9.42956e-43
-6.49542e-44
1.09324e-43
-7.4406e-45
1.20154e-44
-8.10605e-46
1.26784e-45
-8.4837e-47
1.28328e-46
-8.49438e-48
1.27732e-47
-8.02782e-49
1.33115e-48
-2.75137e-50
3.25198e-49
3.52157e-50
1.47942e-50
-9.06327e-51
-1.91244e-49
-2.04734e-50
-6.79013e-50
-7.28228e-51
-2.06169e-50
-2.11343e-51
-4.46376e-51
-4.54852e-52
-8.64025e-52
-8.57183e-53
-1.43212e-52
2.6348e-55
-2.22629e-53
1.84488e-52
-9.29713e-54
2.32649e-51
-8.25511e-53
2.82397e-50
-1.0473e-51
3.33048e-49
-1.29964e-50
3.81538e-48
-1.56944e-49
4.23403e-47
-1.84034e-48
4.55196e-46
-2.09476e-47
4.72126e-45
-2.30729e-46
4.72961e-44
-2.45937e-45
4.54538e-43
-2.52381e-44
4.20499e-42
-2.49376e-43
3.70038e-41
-2.34565e-42
3.12259e-40
-2.08923e-41
2.46769e-39
-1.69426e-40
1.857e-38
-1.18178e-39
1.25766e-37
-5.24981e-39
7.90359e-37
1.73834e-38
3.88333e-36
8.08449e-37
1.58736e-35
1.10485e-35
9.6897e-35
-1.63124e-36
3.85396e-36
-6.7587e-37
-2.27818e-36
-2.66898e-37
1.40114e-36
-9.52238e-38
3.63581e-37
-2.1274e-38
7.75361e-38
-4.32574e-39
1.2368e-38
-7.2783e-40
1.84241e-39
-1.13822e-40
2.45188e-40
-1.60086e-41
3.11442e-41
-2.1215e-42
3.69588e-42
-2.61596e-43
4.20844e-43
-3.06787e-44
4.55331e-44
-3.40574e-45
4.74255e-45
-3.62059e-46
4.73609e-46
-3.68046e-47
4.56955e-47
-3.60037e-48
4.25993e-48
-3.35706e-49
3.9915e-49
-2.78147e-50
3.3803e-50
-3.33552e-51
-1.16007e-50
-1.72585e-51
-4.90457e-51
-5.54373e-52
-1.54657e-51
-1.5746e-52
-3.3884e-52
-3.35544e-53
-6.59841e-53
-2.91821e-54
-1.11219e-53
4.56834e-53
-3.66113e-54
6.022e-52
-2.69292e-53
7.56275e-51
-3.50427e-52
9.24908e-50
-4.48611e-51
1.09956e-48
-5.59396e-50
1.27063e-47
-6.79089e-49
1.42297e-46
-8.00864e-48
1.54534e-45
-9.17407e-47
1.61992e-44
-1.01755e-45
1.64257e-43
-1.09332e-44
1.59872e-42
-1.13205e-43
1.50165e-41
-1.13094e-42
1.3423e-40
-1.07832e-41
1.15618e-39
-9.80076e-41
9.32698e-39
-8.21387e-40
7.24664e-38
-6.14569e-39
5.06446e-37
-3.40157e-38
3.39596e-36
-3.78782e-38
1.7745e-35
2.71783e-36
8.80922e-35
4.73414e-35
5.26048e-34
-1.49843e-35
-1.03012e-34
-1.23922e-35
4.56978e-36
-2.96665e-36
1.958e-36
-7.33369e-37
3.68732e-37
-1.34741e-37
6.80966e-38
-2.39053e-38
1.02457e-38
-3.68201e-39
1.4862e-39
-5.40051e-40
1.95156e-40
-7.25085e-41
2.46214e-41
-9.27368e-42
2.90835e-42
-1.11243e-42
3.30134e-43
-1.27624e-43
3.56225e-44
-1.3918e-44
3.70225e-45
-1.45814e-45
3.68974e-46
-1.46441e-46
3.55247e-47
-1.41859e-47
3.29948e-48
-1.32469e-48
2.97956e-49
-1.1956e-49
2.58876e-50
-1.05279e-50
1.13543e-51
-9.97283e-52
-1.97033e-52
-1.11844e-52
-1.00861e-52
-1.71622e-53
-2.40341e-53
-3.69178e-54
-4.81598e-54
-1.1287e-53
-8.36108e-55
-1.41633e-52
-4.78677e-55
-1.81203e-51
-4.80195e-54
-2.25913e-50
-6.30975e-53
-2.74172e-49
-8.11913e-52
-3.2325e-48
-1.01789e-50
-3.70117e-47
-1.24296e-49
-4.10369e-46
-1.4751e-48
-4.40677e-45
-1.70162e-47
-4.56317e-44
-1.90208e-46
-4.56239e-43
-2.06322e-45
-4.37289e-42
-2.16346e-44
-4.03361e-41
-2.20737e-43
-3.53501e-40
-2.19294e-42
-2.9717e-39
-2.18128e-41
-2.33529e-38
-2.22426e-40
-1.75284e-37
-2.4632e-39
-1.18169e-36
-2.93206e-38
-7.50595e-36
-3.62658e-37
-3.72248e-35
-4.16671e-36
-1.65723e-34
-4.12607e-35
-3.08585e-34
-2.61015e-34
2.52225e-34
-2.21508e-35
2.03106e-35
-1.58125e-35
9.30891e-37
-3.64123e-36
-1.12171e-37
-6.0851e-37
-5.02733e-38
-1.03594e-37
-9.29486e-39
-1.52776e-38
-1.45812e-39
-2.18278e-39
-1.9673e-40
-2.85821e-40
-2.50432e-41
-3.59081e-41
-2.96446e-42
-4.23711e-42
-3.36433e-43
-4.79871e-43
-3.62705e-44
-5.17212e-44
-3.76574e-45
-5.36601e-45
-3.74933e-46
-5.34137e-46
-3.60641e-47
-5.13476e-47
-3.34605e-48
-4.76226e-48
-3.00718e-49
-4.27848e-49
-2.619e-50
-3.72406e-50
-2.29035e-51
-3.15529e-51
-2.09027e-52
-2.61262e-52
-2.28327e-53
-2.15691e-53
-2.94395e-54
-3.2496e-54
-4.23394e-55
-1.99309e-53
1.62739e-55
-2.59978e-52
3.13099e-54
-3.33373e-51
4.22335e-53
-4.16429e-50
5.54352e-52
-5.06445e-49
7.09762e-51
-5.98447e-48
8.85073e-50
-6.86929e-47
1.07449e-48
-7.63701e-46
1.2672e-47
-8.22614e-45
1.4516e-46
-8.54647e-44
1.60991e-45
-8.57793e-43
1.72919e-44
-8.25627e-42
1.78839e-43
-7.65416e-41
1.78048e-42
-6.74498e-40
1.68069e-41
-5.70981e-39
1.48513e-40
-4.52091e-38
1.1468e-39
-3.42924e-37
6.53074e-39
-2.33761e-36
-5.2578e-39
-1.51267e-35
-8.90206e-37
-7.64115e-35
-1.72663e-35
-3.55768e-34
-2.20007e-34
-2.10049e-33
-1.56428e-35
1.42136e-34
-1.15118e-35
2.18377e-35
-2.77265e-36
9.00976e-37
-6.91215e-37
-1.56016e-37
-1.28109e-37
-6.2616e-38
-2.28995e-38
-1.15023e-38
-3.54764e-39
-1.80542e-39
-5.22764e-40
-2.44669e-40
-7.04442e-41
-3.12748e-41
-9.03649e-42
-3.71815e-42
-1.08661e-42
-4.23503e-43
-1.24917e-43
-4.58119e-44
-1.36463e-44
-4.77006e-45
-1.43179e-45
-4.76179e-46
-1.43979e-46
-4.59083e-47
-1.39632e-47
-4.26845e-48
-1.30544e-48
-3.84436e-49
-1.1812e-49
-3.35328e-50
-1.03476e-50
-2.84604e-51
-8.80366e-52
-2.35701e-52
-7.28483e-53
-1.93124e-53
-5.86035e-54
-1.58835e-54
-7.08308e-57
-1.28544e-55
6.18417e-54
9.38274e-56
8.18369e-53
1.46118e-54
1.05031e-51
1.96685e-53
1.31312e-50
2.58178e-52
1.5985e-49
3.30578e-51
1.89091e-48
4.12253e-50
2.1731e-47
5.00502e-49
2.41921e-46
5.90282e-48
2.6098e-45
6.76177e-47
2.71605e-44
7.49845e-46
2.7314e-43
8.05126e-45
2.63477e-42
8.31775e-44
2.44892e-41
8.25412e-43
2.16431e-40
7.71781e-42
1.83849e-39
6.63455e-41
1.46133e-38
4.68461e-40
1.11363e-37
1.67266e-39
7.62957e-37
-2.77367e-38
4.96676e-36
-8.20565e-37
2.52383e-35
-1.35703e-35
1.18379e-34
-1.6415e-34
-1.51479e-33
-2.37945e-36
2.45112e-35
3.30174e-37
1.48785e-35
-3.92078e-38
1.51201e-36
-4.52292e-38
8.8568e-38
-1.3324e-38
-4.45915e-39
-3.11273e-39
-2.03543e-39
-5.64818e-40
-3.91116e-40
-9.27661e-41
-5.75717e-41
-1.34848e-41
-7.67393e-42
-1.83067e-42
-9.38246e-43
-2.29864e-43
-1.09007e-43
-2.7344e-44
-1.1988e-44
-3.0704e-45
-1.26514e-45
-3.29491e-46
-1.27803e-46
-3.3759e-47
-1.24473e-47
-3.32585e-48
-1.16791e-48
-3.15113e-49
-1.06032e-49
-2.88392e-50
-9.31574e-51
-2.55123e-51
-7.94669e-52
-2.18816e-52
-6.58919e-53
-1.8208e-53
-5.33693e-54
-1.37408e-54
-4.25122e-55
1.28809e-54
-4.79451e-56
1.89174e-53
-2.06632e-55
2.48907e-52
-2.8094e-54
3.1935e-51
-3.78052e-53
3.99127e-50
-4.96581e-52
4.85693e-49
-6.36312e-51
5.74306e-48
-7.94178e-50
6.5971e-47
-9.65078e-49
7.34047e-46
-1.13938e-47
7.91417e-45
-1.30678e-46
8.231e-44
-1.4514e-45
8.27135e-43
-1.56208e-44
7.97205e-42
-1.62097e-43
7.40254e-41
-1.6252e-42
6.53506e-40
-1.56041e-41
5.54422e-39
-1.44088e-40
4.40057e-38
-1.25484e-39
3.34811e-37
-1.03399e-38
2.28986e-36
-7.59244e-38
1.48808e-35
-4.78836e-37
7.54899e-35
-1.73261e-36
3.53751e-34
6.85561e-36
2.48752e-34
-2.88705e-37
1.42248e-34
2.13489e-37
1.3469e-35
4.31231e-38
1.5967e-36
3.67618e-39
1.43054e-37
-4.09715e-40
9.70187e-39
-2.54524e-40
4.18993e-40
-6.09824e-41
-1.27905e-41
-1.15831e-41
-6.12678e-42
-1.83855e-42
-1.06682e-42
-2.65005e-43
-1.46969e-43
-3.47573e-44
-1.83504e-44
-4.27363e-45
-2.1232e-45
-4.92613e-46
-2.33043e-46
-5.39901e-47
-2.43008e-47
-5.62942e-48
-2.42995e-48
-5.62767e-49
-2.33126e-49
-5.39909e-50
-2.15707e-50
-4.99445e-51
-1.92644e-51
-4.45965e-52
-1.66637e-52
-3.85589e-53
-1.39757e-53
-3.23435e-54
-1.14014e-54
-2.98425e-55
-9.10113e-56
-5.05957e-55
-1.22058e-56
-6.5388e-54
-7.30217e-56
-8.59957e-53
-9.98297e-55
-1.10366e-51
-1.34352e-53
-1.37983e-50
-1.76488e-52
-1.67974e-49
-2.26168e-51
-1.98707e-48
-2.82308e-50
-2.28371e-47
-3.43097e-49
-2.54248e-46
-4.05119e-48
-2.74297e-45
-4.64727e-47
-2.8549e-44
-5.16319e-46
-2.87136e-43
-5.56055e-45
-2.77019e-42
-5.7796e-44
-2.57528e-41
-5.82032e-43
-2.27653e-40
-5.65585e-42
-1.93444e-39
-5.38802e-41
-1.53822e-38
-5.06452e-40
-1.17286e-37
-4.91957e-39
-8.04091e-37
-4.97636e-38
-5.2392e-36
-5.3289e-37
-2.66516e-35
-5.50528e-36
-1.25188e-34
-5.13391e-35
-3.67764e-34
-3.72271e-37
2.5178e-35
4.67377e-37
1.07096e-35
8.45333e-38
1.40191e-36
1.61019e-38
1.40831e-37
2.13608e-39
1.24515e-38
2.70596e-40
1.0375e-39
2.86221e-41
9.18967e-41
2.74626e-42
8.75974e-42
2.13629e-43
9.01863e-43
1.1626e-44
9.38829e-44
-1.54056e-46
9.72051e-45
-1.63639e-46
9.746e-46
-3.12927e-47
9.49122e-47
-4.46806e-48
8.91821e-48
-5.51638e-49
8.12639e-49
-6.20246e-50
7.16826e-50
-6.49372e-51
6.1433e-51
-6.42409e-52
5.11338e-52
-6.05088e-53
4.14363e-53
-5.46328e-54
3.26946e-54
-4.8145e-55
2.51618e-55
-1.37609e-55
1.99491e-56
-1.35205e-54
1.68951e-56
-1.81799e-53
2.18588e-55
-2.3918e-52
3.00835e-54
-3.06998e-51
4.04751e-53
-3.83858e-50
5.31502e-52
-4.67335e-49
6.80845e-51
-5.52878e-48
8.49463e-50
-6.35445e-47
1.03185e-48
-7.07464e-46
1.21766e-47
-7.63255e-45
1.39581e-46
-7.94365e-44
1.54915e-45
-7.98894e-43
1.66529e-44
-7.70638e-42
1.72377e-43
-7.16306e-41
1.71775e-42
-6.33035e-40
1.62284e-41
-5.37778e-39
1.43485e-40
-4.27438e-38
1.10701e-39
-3.2586e-37
6.25768e-39
-2.23307e-36
-6.62352e-39
-1.45639e-35
-8.92556e-37
-7.41293e-35
-1.72439e-35
-3.50479e-34
-2.20463e-34
-2.12184e-33
1.36861e-36
2.86159e-35
-1.84332e-36
2.16094e-35
-4.02285e-37
2.58013e-36
-8.76134e-38
2.40167e-37
-1.38548e-38
1.91206e-38
-2.12422e-39
1.44173e-39
-2.87611e-40
1.22298e-40
-3.76103e-41
1.25513e-41
-4.57125e-42
1.50269e-42
-5.35367e-43
1.83964e-43
-5.94236e-44
2.20829e-44
-6.35922e-45
2.51929e-45
-6.51521e-46
2.74876e-46
-6.44924e-47
2.85728e-47
-6.15069e-48
2.85131e-48
-5.6819e-49
2.73139e-49
-5.07956e-50
2.52434e-50
-4.40939e-51
2.25228e-51
-3.71653e-52
1.94641e-52
-3.04844e-53
1.63059e-53
-2.42935e-54
1.32724e-54
-1.20377e-55
1.0541e-55
9.39166e-55
1.32734e-56
1.2847e-53
7.34262e-56
1.68975e-52
1.00185e-54
2.16797e-51
1.3467e-53
2.7095e-50
1.76682e-52
3.29701e-49
2.26107e-51
3.89821e-48
2.81814e-50
4.47739e-47
3.4194e-49
4.98109e-46
4.0303e-48
5.36929e-45
4.61373e-47
5.58272e-44
5.11294e-46
5.60826e-43
5.48596e-45
5.40301e-42
5.66402e-44
5.01462e-41
5.61865e-43
4.42413e-40
5.25764e-42
3.75088e-39
4.53807e-41
2.97448e-38
3.26033e-40
2.26159e-37
1.31402e-39
1.5453e-36
-1.52326e-38
1.00468e-35
-4.94265e-37
5.09765e-35
-8.2644e-36
2.40413e-34
-9.94316e-35
-9.02384e-34
1.43779e-36
4.09755e-34
-2.11199e-36
3.37381e-35
-4.48595e-37
4.01173e-36
-1.0152e-37
3.92993e-37
-1.67246e-38
3.69092e-38
-2.71573e-39
3.67534e-39
-3.88718e-40
4.3024e-40
-5.37969e-41
5.39534e-41
-6.89332e-42
6.93313e-42
-8.48848e-43
8.52982e-43
-9.86968e-44
1.00847e-43
-1.10303e-44
1.12976e-44
-1.17651e-45
1.21246e-45
-1.20915e-46
1.24282e-46
-1.19423e-47
1.22583e-47
-1.13989e-48
1.16286e-48
-1.05072e-49
1.06592e-49
-9.38666e-51
9.44456e-51
-8.12814e-52
8.11382e-52
-6.8387e-53
6.76304e-53
-5.58736e-54
5.48095e-54
-3.602e-55
4.31493e-55
1.14066e-54
2.27946e-56
1.58194e-53
-1.44176e-55
2.07911e-52
-2.01783e-54