/*--------------------------------*- C++ -*----------------------------------*\
| =========                 |                                                 |
| \\      /  F ield         | OpenFOAM: The Open Source CFD Toolbox           |
|  \\    /   O peration     | Version:  2.4.0                                 |
|   \\  /    A nd           | Web:      www.OpenFOAM.org                      |
|    \\/     M anipulation  |                                                 |
\*---------------------------------------------------------------------------*/
FoamFile
{
    version     2.0;
    format      ascii;
    class       volVectorField;
    location    "1";
    object      U;
}
// * * * * * * * * * * * * * * * * * * * * * * * * * * * * * * * * * * * * * //

dimensions      [0 1 -1 0 0 0 0];

internalField   nonuniform List<vector> 
1915
(
(-9.68646e-32 6.54012e-32 0)
(-1.81186e-32 1.01787e-32 0)
(-2.833e-33 1.516e-33 0)
(-4.27286e-34 2.00954e-34 0)
(-5.8155e-35 2.55918e-35 0)
(-7.56934e-36 3.03722e-36 0)
(-9.18206e-37 3.46618e-37 0)
(-1.06646e-37 3.75367e-38 0)
(-1.17371e-38 3.91657e-39 0)
(-1.24116e-39 3.91531e-40 0)
(-1.25594e-40 3.78136e-41 0)
(-1.22569e-41 3.52059e-42 0)
(-1.15183e-42 3.17568e-43 0)
(-1.01942e-43 2.78781e-44 0)
(2.50674e-44 3.73942e-45 0)
(3.99015e-43 1.28068e-44 0)
(4.49941e-42 1.09234e-43 0)
(4.88822e-41 8.88201e-43 0)
(5.11e-40 6.80905e-42 0)
(5.14443e-39 4.78883e-41 0)
(4.95979e-38 3.12627e-40 0)
(4.5917e-37 1.78041e-39 0)
(4.04113e-36 9.15326e-39 0)
(3.40457e-35 3.5368e-38 0)
(2.69471e-34 1.14912e-37 0)
(-1.31272e-30 3.67706e-34 0)
(-8.59593e-30 1.81675e-34 0)
(-3.33509e-29 1.32765e-34 0)
(-2.18237e-28 3.47234e-35 0)
(-7.24208e-29 7.99506e-36 0)
(1.94174e-28 1.68328e-36 0)
(1.76523e-29 -1.91695e-36 0)
(-6.09142e-29 -8.01158e-35 0)
(4.6136e-30 -1.38422e-33 0)
(8.33795e-29 -1.69808e-32 0)
(9.60711e-29 -1.5786e-31 0)
(9.87804e-29 -1.04507e-30 0)
(9.65102e-29 -1.5786e-31 0)
(8.58789e-29 -1.69809e-32 0)
(1.35361e-29 -1.38425e-33 0)
(5.54834e-31 -8.01496e-35 0)
(-1.00836e-29 -2.1208e-36 0)
(-7.188e-29 2.77891e-37 0)
(-1.06244e-29 7.00339e-38 0)
(-2.80092e-30 1.01609e-38 0)
(-4.5867e-31 1.29694e-39 0)
(-8.18485e-32 1.49811e-40 0)
(-1.21318e-32 1.6607e-41 0)
(-1.77526e-33 1.74798e-42 0)
(-2.34535e-34 1.78916e-43 0)
(-2.99085e-35 1.76425e-44 0)
(-3.55948e-36 1.69652e-45 0)
(-4.07415e-37 1.58083e-46 0)
(-4.42415e-38 1.43699e-47 0)
(-4.62728e-39 1.24183e-48 0)
(-4.63568e-40 -2.23036e-49 0)
(-4.48544e-41 -3.82115e-48 0)
(-4.18301e-42 -4.31025e-47 0)
(-3.77362e-43 -4.73533e-46 0)
(-2.62154e-44 -5.08916e-45 0)
(8.44592e-44 -5.34368e-44 0)
(1.04823e-42 -5.49902e-43 0)
(1.19104e-41 -5.5315e-42 0)
(1.28382e-40 -5.46089e-41 0)
(1.31559e-39 -5.26251e-40 0)
(1.28016e-38 -4.97354e-39 0)
(1.18488e-37 -4.56431e-38 0)
(1.03676e-36 -4.09107e-37 0)
(8.61126e-36 -3.52453e-36 0)
(6.69382e-35 -2.94479e-35 0)
(-2.73875e-31 1.61452e-31 0)
(-1.61168e-30 9.83228e-31 0)
(-5.80199e-30 4.49712e-30 0)
(-2.55473e-29 5.19421e-31 0)
(-8.50977e-30 -8.68535e-30 0)
(2.13159e-29 -2.10275e-30 0)
(3.01334e-30 5.24275e-30 0)
(-6.35027e-30 4.59263e-31 0)
(9.0758e-31 -3.12964e-30 0)
(1.04407e-29 -2.15499e-30 0)
(1.26778e-29 -6.00748e-31 0)
(1.31586e-29 -1.05448e-30 0)
(1.27239e-29 2.23967e-31 0)
(1.08885e-29 1.84313e-30 0)
(2.39996e-30 1.91566e-30 0)
(1.18182e-31 7.09896e-31 0)
(-1.73685e-30 1.53553e-30 0)
(-8.39469e-30 1.19284e-32 0)
(-1.85188e-30 -1.45643e-30 0)
(-5.24188e-31 -3.16095e-31 0)
(-9.68646e-32 -6.54012e-32 0)
(-1.81186e-32 -1.01787e-32 0)
(-2.833e-33 -1.516e-33 0)
(-4.27286e-34 -2.00954e-34 0)
(-5.8155e-35 -2.55918e-35 0)
(-7.56934e-36 -3.03722e-36 0)
(-9.18206e-37 -3.46618e-37 0)
(-1.06646e-37 -3.75367e-38 0)
(-1.17371e-38 -3.91657e-39 0)
(-1.24116e-39 -3.91531e-40 0)
(-1.25594e-40 -3.78136e-41 0)
(-1.22569e-41 -3.52061e-42 0)
(-1.15235e-42 -3.17772e-43 0)
(-1.07549e-43 -2.99381e-44 0)
(-3.37766e-44 -2.37436e-44 0)
(-2.06292e-43 -1.98453e-43 0)
(-1.58693e-42 -1.75738e-42 0)
(-1.11795e-41 -1.47536e-41 0)
(-6.75433e-41 -1.17846e-40 0)
(-3.20725e-40 -8.81192e-40 0)
(-5.27563e-40 -6.25856e-39 0)
(1.02251e-38 -4.11251e-38 0)
(1.77768e-37 -2.61354e-37 0)
(1.81935e-36 -1.55471e-36 0)
(1.53672e-35 -9.73521e-36 0)
(-5.49918e-32 5.27277e-32 0)
(-2.54484e-31 2.13615e-31 0)
(-5.98166e-31 7.97292e-31 0)
(-2.05463e-30 6.0493e-32 0)
(-7.1521e-31 -1.52393e-30 0)
(1.5984e-30 -3.92171e-31 0)
(2.6941e-31 8.97801e-31 0)
(-3.91562e-31 9.36271e-32 0)
(1.4568e-31 -5.56799e-31 0)
(9.22536e-31 -4.03808e-31 0)
(1.17803e-30 -1.24905e-31 0)
(1.22932e-30 -1.42126e-31 0)
(1.14803e-30 5.08642e-32 0)
(9.77597e-31 3.38129e-31 0)
(2.70107e-31 3.54451e-31 0)
(2.09693e-32 1.50381e-31 0)
(-1.67493e-31 2.73844e-31 0)
(-6.9448e-31 2.84583e-33 0)
(-1.87904e-31 -2.55962e-31 0)
(-7.8256e-32 -6.64274e-32 0)
(-1.68555e-32 -1.46025e-32 0)
(-3.56434e-33 -2.41502e-33 0)
(-5.99584e-34 -3.71811e-34 0)
(-9.55427e-35 -5.08689e-35 0)
(-1.35145e-35 -6.61945e-36 0)
(-1.81212e-36 -8.01488e-37 0)
(-2.24871e-37 -9.28847e-38 0)
(-2.65952e-38 -1.02016e-38 0)
(-2.96978e-39 -1.0768e-39 0)
(-3.17791e-40 -1.08789e-40 0)
(-3.24738e-41 -1.06021e-41 0)
(-3.19527e-42 -9.95443e-43 0)
(-3.04755e-43 -9.19565e-44 0)
(-5.06872e-44 -2.33544e-44 0)
(-2.13442e-43 -1.5011e-43 0)
(-1.84168e-42 -1.38318e-42 0)
(-1.51235e-41 -1.22172e-41 0)
(-1.1708e-40 -1.01802e-40 0)
(-8.34531e-40 -8.02142e-40 0)
(-5.51212e-39 -5.84586e-39 0)
(-3.19968e-38 -3.97037e-38 0)
(-1.66143e-37 -2.39337e-37 0)
(-6.58773e-37 -1.30682e-36 0)
(-2.03582e-36 -5.6558e-36 0)
(-3.93395e-37 -2.07138e-35 0)
(-8.41996e-32 9.4988e-32 0)
(-1.71179e-31 7.74532e-32 0)
(-7.69752e-32 1.70943e-31 0)
(-1.25236e-31 1.42637e-32 0)
(-4.6679e-32 -2.7704e-31 0)
(7.99296e-32 -7.2982e-32 0)
(1.4664e-32 1.61812e-31 0)
(-8.29977e-33 1.74158e-32 0)
(1.77634e-32 -1.02043e-31 0)
(6.17787e-32 -7.59169e-32 0)
(8.33564e-32 -2.58583e-32 0)
(8.7606e-32 -3.16743e-32 0)
(7.73454e-32 8.65588e-33 0)
(6.66931e-32 6.24329e-32 0)
(2.29511e-32 6.61489e-32 0)
(2.79168e-33 2.93029e-32 0)
(-1.08659e-32 5.048e-32 0)
(-4.23205e-32 6.24358e-34 0)
(-1.35826e-32 -4.67378e-32 0)
(-8.86508e-33 -1.28274e-32 0)
(-2.20702e-33 -3.02026e-33 0)
(-5.12949e-34 -5.2589e-34 0)
(-9.16289e-35 -8.47586e-35 0)
(-1.52133e-35 -1.20154e-35 0)
(-2.22011e-36 -1.60958e-36 0)
(-3.04658e-37 -1.99394e-37 0)
(-3.85278e-38 -2.35391e-38 0)
(-4.62512e-39 -2.62423e-39 0)
(-5.23045e-40 -2.8041e-40 0)
(-5.65553e-41 -2.86183e-41 0)
(-5.83162e-42 -2.8127e-42 0)
(-5.79842e-43 -2.66796e-43 0)
(-7.23253e-44 -3.35654e-44 0)
(-1.7216e-43 -9.62848e-44 0)
(-1.54459e-42 -9.20322e-43 0)
(-1.36136e-41 -8.59273e-42 0)
(-1.13164e-40 -7.66884e-41 0)
(-8.89021e-40 -6.47003e-40 0)
(-6.45395e-39 -5.17234e-39 0)
(-4.36305e-38 -3.83696e-38 0)
(-2.61455e-37 -2.65919e-37 0)
(-1.41952e-36 -1.64287e-36 0)
(-6.10241e-36 -9.18607e-36 0)
(-2.21884e-35 -4.06241e-35 0)
(-3.559e-35 -1.46205e-34 0)
(-8.66933e-31 5.8252e-31 0)
(-1.11305e-30 1.01615e-31 0)
(-1.8282e-31 3.06094e-32 0)
(-4.67346e-32 1.92364e-33 0)
(-9.15405e-33 -3.67908e-32 0)
(-1.47549e-33 -9.94084e-33 0)
(-2.78831e-34 2.11629e-32 0)
(2.39334e-33 2.3847e-33 0)
(2.14795e-33 -1.36087e-32 0)
(2.91492e-33 -1.03903e-32 0)
(4.60168e-33 -3.81761e-33 0)
(4.82253e-33 -4.47769e-33 0)
(3.45824e-33 1.12345e-33 0)
(3.27806e-33 8.40886e-33 0)
(1.74256e-33 8.99018e-33 0)
(3.60863e-34 4.17206e-33 0)
(-3.29308e-34 6.76435e-33 0)
(-1.39662e-33 9.75503e-35 0)
(-6.8111e-34 -6.20236e-33 0)
(-1.00321e-33 -1.81322e-33 0)
(-2.81541e-34 -4.4889e-34 0)
(-7.11087e-35 -8.1681e-35 0)
(-1.33174e-35 -1.36247e-35 0)
(-2.2911e-36 -1.98805e-36 0)
(-3.43102e-37 -2.7235e-37 0)
(-4.80513e-38 -3.43785e-38 0)
(-6.17561e-39 -4.11974e-39 0)
(-7.5114e-40 -4.6519e-40 0)
(-8.58689e-41 -5.02334e-41 0)
(-9.3685e-42 -5.17382e-42 0)
(-9.74303e-43 -5.12878e-43 0)
(-1.07548e-43 -5.37109e-44 0)
(-1.15312e-43 -5.69809e-44 0)
(-1.03591e-42 -5.38355e-43 0)
(-9.65342e-42 -5.30682e-42 0)
(-8.60268e-41 -5.00885e-41 0)
(-7.24531e-40 -4.52644e-40 0)
(-5.7813e-39 -3.87586e-39 0)
(-4.28074e-38 -3.15402e-38 0)
(-2.96436e-37 -2.39098e-37 0)
(-1.83594e-36 -1.70151e-36 0)
(-1.03933e-35 -1.08623e-35 0)
(-4.78637e-35 -6.31808e-35 0)
(-1.91878e-34 -2.93131e-34 0)
(-4.26957e-34 -1.1135e-33 0)
(-5.77954e-32 7.15895e-31 0)
(-1.54501e-31 1.1195e-31 0)
(-3.57952e-32 -5.53638e-33 0)
(-8.93975e-33 -3.59114e-33 0)
(-1.69955e-33 -5.77989e-33 0)
(-8.82587e-34 -1.48216e-33 0)
(-1.72968e-34 2.7431e-33 0)
(4.49924e-34 3.1214e-34 0)
(2.37954e-34 -1.80136e-33 0)
(6.1089e-35 -1.40105e-33 0)
(1.88662e-34 -5.55909e-34 0)
(1.91521e-34 -6.99245e-34 0)
(3.24079e-35 1.24859e-34 0)
(8.18554e-35 1.11344e-33 0)
(1.27133e-34 1.20291e-33 0)
(4.18454e-35 5.71863e-34 0)
(2.54498e-35 8.9914e-34 0)
(5.78711e-35 1.4434e-35 0)
(-1.54242e-35 -8.18511e-34 0)
(-1.05635e-34 -2.46989e-34 0)
(-3.23707e-35 -6.38688e-35 0)
(-8.64895e-36 -1.20237e-35 0)
(-1.67879e-36 -2.06714e-36 0)
(-2.96584e-37 -3.08968e-37 0)
(-4.53529e-38 -4.31717e-38 0)
(-6.45683e-39 -5.53753e-39 0)
(-8.41288e-40 -6.72358e-40 0)
(-1.03474e-40 -7.67519e-41 0)
(-1.19425e-41 -8.36338e-42 0)
(-1.31387e-42 -8.68143e-43 0)
(-1.42996e-43 -8.83261e-44 0)
(-7.3326e-44 -2.82751e-44 0)
(-6.10783e-43 -2.15215e-43 0)
(-6.00495e-42 -2.21817e-42 0)
(-5.65978e-41 -2.21143e-41 0)
(-5.10661e-40 -2.11418e-40 0)
(-4.36483e-39 -1.93896e-39 0)
(-3.54561e-38 -1.69114e-38 0)
(-2.68425e-37 -1.40594e-37 0)
(-1.91185e-36 -1.09595e-36 0)
(-1.2293e-35 -8.05367e-36 0)
(-7.32341e-35 -5.37099e-35 0)
(-3.64488e-34 -3.27418e-34 0)
(-1.64155e-33 -1.62614e-33 0)
(-4.73123e-33 -6.5445e-33 0)
(3.88522e-33 1.68172e-30 0)
(-1.90608e-32 2.64833e-31 0)
(-5.0325e-33 2.64441e-32 0)
(-1.62348e-33 1.63843e-33 0)
(-3.41876e-34 -5.88659e-34 0)
(-1.64642e-34 -1.79523e-34 0)
(-3.23384e-35 3.11659e-34 0)
(5.88371e-35 3.59993e-35 0)
(2.62757e-35 -2.08709e-34 0)
(-7.47033e-36 -1.65231e-34 0)
(3.70167e-36 -6.97979e-35 0)
(1.79996e-36 -8.98006e-35 0)
(-1.71017e-35 1.21835e-35 0)
(-6.98019e-36 1.29125e-34 0)
(1.00971e-35 1.40809e-34 0)
(4.74536e-36 6.85951e-35 0)
(6.45316e-36 1.04524e-34 0)
(1.81157e-35 1.84035e-36 0)
(1.80232e-36 -9.45027e-35 0)
(-1.13193e-35 -2.94788e-35 0)
(-3.65713e-36 -7.8816e-36 0)
(-1.01657e-36 -1.5267e-36 0)
(-2.02433e-37 -2.6876e-37 0)
(-3.65137e-38 -4.0979e-38 0)
(-5.67604e-39 -5.8188e-39 0)
(-8.19054e-40 -7.56593e-40 0)
(-1.0792e-40 -9.28948e-41 0)
(-1.33977e-41 -1.07062e-41 0)
(-1.55872e-42 -1.17604e-42 0)
(-1.7462e-43 -1.23509e-43 0)
(-4.11805e-44 -1.93477e-44 0)
(-2.48526e-43 -7.96967e-44 0)
(-2.54836e-42 -8.49864e-43 0)
(-2.53668e-41 -8.878e-42 0)
(-2.4209e-40 -8.95002e-41 0)
(-2.21595e-39 -8.66465e-40 0)
(-1.92857e-38 -8.05947e-39 0)
(-1.60011e-37 -7.14597e-38 0)
(-1.24587e-36 -6.05542e-37 0)
(-9.17676e-36 -4.83132e-36 0)
(-6.19371e-35 -3.65462e-35 0)
(-3.91599e-34 -2.5301e-34 0)
(-2.14991e-33 -1.62563e-33 0)
(-1.09388e-32 -8.6669e-33 0)
(-4.10278e-32 -3.95603e-32 0)
(-8.23536e-32 1.13e-30 0)
(2.44343e-32 1.83821e-31 0)
(3.89668e-33 2.42983e-32 0)
(2.859e-34 2.73277e-33 0)
(-5.3183e-35 2.55488e-34 0)
(-3.77511e-35 2.06354e-35 0)
(-8.51186e-36 4.04971e-35 0)
(5.54591e-36 4.78231e-36 0)
(2.59109e-36 -2.35502e-35 0)
(-1.35784e-36 -1.89861e-35 0)
(-2.96817e-37 -8.53128e-36 0)
(-6.58163e-37 -1.15612e-35 0)
(-2.72304e-36 9.97708e-37 0)
(-1.4335e-36 1.45736e-35 0)
(8.56206e-37 1.60528e-35 0)
(5.00595e-37 7.94673e-36 0)
(8.36958e-37 1.18715e-35 0)
(2.36696e-36 2.23692e-37 0)
(3.44663e-37 -1.0677e-35 0)
(-1.15031e-36 -3.40172e-36 0)
(-3.85289e-37 -9.34349e-37 0)
(-1.10059e-37 -1.84961e-37 0)
(-2.23645e-38 -3.31932e-38 0)
(-4.10051e-39 -5.14217e-39 0)
(-6.46241e-40 -7.39927e-40 0)
(-9.43087e-41 -9.72874e-41 0)
(-1.25471e-41 -1.20566e-41 0)
(-1.57033e-42 -1.40056e-42 0)
(-1.84669e-43 -1.54918e-43 0)
(-2.87418e-44 -1.68967e-44 0)
(-9.43183e-44 -8.90528e-45 0)
(-9.96057e-43 -8.29176e-44 0)
(-1.0386e-41 -9.12463e-43 0)
(-1.04498e-40 -9.73923e-42 0)
(-1.00941e-39 -1.00172e-40 0)
(-9.36582e-39 -9.94379e-40 0)
(-8.28066e-38 -9.45552e-39 0)
(-6.9962e-37 -8.65395e-38 0)
(-5.56641e-36 -7.52798e-37 0)
(-4.2079e-35 -6.30254e-36 0)
(-2.93034e-34 -4.96068e-35 0)
(-1.92962e-33 -3.76901e-34 0)
(-1.10974e-32 -2.6004e-33 0)
(-6.1028e-32 -1.68366e-32 0)
(-2.44651e-31 -8.32861e-32 0)
(-1.53554e-31 -3.49643e-31 0)
(-1.24307e-31 -1.96903e-32 0)
(-2.94321e-32 2.34152e-32 0)
(-8.04132e-33 5.56818e-33 0)
(-1.53211e-33 1.13938e-33 0)
(-2.87992e-34 1.77294e-34 0)
(-4.57218e-35 3.00801e-35 0)
(-6.18494e-36 3.91791e-36 0)
(-6.5933e-37 -2.03068e-36 0)
(-2.75277e-37 -1.96225e-36 0)
(-6.23725e-38 -9.4756e-37 0)
(-1.02849e-37 -1.3319e-36 0)
(-3.23232e-37 6.74142e-38 0)
(-1.76676e-37 1.51839e-36 0)
(7.73002e-38 1.68819e-36 0)
(5.10939e-38 8.4885e-37 0)
(9.19857e-38 1.24387e-36 0)
(2.58385e-37 2.48508e-38 0)
(4.15264e-38 -1.11335e-36 0)
(-1.14963e-37 -3.62227e-37 0)
(-3.93691e-38 -1.01636e-37 0)
(-1.14735e-38 -2.04934e-38 0)
(-2.36747e-39 -3.73562e-39 0)
(-4.39792e-40 -5.86554e-40 0)
(-7.00804e-41 -8.53476e-41 0)
(-1.03223e-41 -1.13304e-41 0)
(-1.38431e-42 -1.4155e-42 0)
(-1.74484e-43 -1.65599e-43 0)
(-2.14159e-44 -1.85478e-44 0)
(-1.23943e-44 -3.52704e-45 0)
(-1.14532e-43 -1.90242e-44 0)
(-1.2524e-42 -2.17953e-43 0)
(-1.32764e-41 -2.44225e-42 0)
(-1.35635e-40 -2.65486e-41 0)
(-1.3357e-39 -2.78155e-40 0)
(-1.26004e-38 -2.82227e-39 0)
(-1.14094e-37 -2.74468e-38 0)
(-9.80691e-37 -2.58832e-37 0)
(-8.0499e-36 -2.32911e-36 0)
(-6.16983e-35 -2.05751e-35 0)
(-4.47886e-34 -1.73555e-34 0)
(-2.9136e-33 -1.47255e-33 0)
(-1.75017e-32 -1.15617e-32 0)
(-8.12567e-32 -8.79946e-32 0)
(-3.13726e-31 -5.03927e-31 0)
(-9.84053e-31 -4.24003e-32 0)
(-1.22066e-30 -9.93416e-33 0)
(-1.97397e-31 -1.071e-33 0)
(-4.86956e-32 -6.83689e-35 0)
(-8.09531e-33 7.98454e-37 0)
(-1.41563e-33 8.15382e-37 0)
(-2.10032e-34 5.51792e-37 0)
(-3.03747e-35 6.77139e-38 0)
(-3.98593e-36 -2.47931e-37 0)
(-5.23652e-37 -2.06652e-37 0)
(-6.48157e-38 -1.0302e-37 0)
(-1.78387e-38 -1.49775e-37 0)
(-3.4066e-38 2.37435e-39 0)
(-1.83639e-38 1.53107e-37 0)
(6.91439e-39 1.71901e-37 0)
(4.92499e-39 8.74523e-38 0)
(9.12186e-39 1.26393e-37 0)
(2.53308e-38 2.64161e-39 0)
(4.23673e-39 -1.12697e-37 0)
(-1.09079e-38 -3.72291e-38 0)
(-3.80326e-39 -1.0627e-38 0)
(-1.12571e-39 -2.17394e-39 0)
(-2.35315e-40 -4.01336e-40 0)
(-4.41899e-41 -6.37056e-41 0)
(-7.1089e-42 -9.35524e-42 0)
(-1.05543e-42 -1.25186e-42 0)
(-1.42548e-43 -1.57444e-43 0)
(-1.82664e-44 -1.85152e-44 0)
(-4.60133e-45 -1.94383e-45 0)
(-2.92709e-44 1.31006e-45 0)
(-3.32549e-43 1.78764e-44 0)
(-3.68823e-42 2.03245e-43 0)
(-3.96363e-41 2.23343e-42 0)
(-4.10701e-40 2.37398e-41 0)
(-4.11193e-39 2.42817e-40 0)
(-3.94529e-38 2.38561e-39 0)
(-3.64802e-37 2.21897e-38 0)
(-3.20198e-36 1.92112e-37 0)
(-2.70357e-35 1.44124e-36 0)
(-2.12839e-34 7.63182e-36 0)
(-1.61075e-33 -1.55178e-35 0)
(-1.08562e-32 -1.18931e-33 0)
(-7.00924e-32 -2.10635e-32 0)
(-3.4058e-31 -2.45234e-31 0)
(-1.58212e-30 -2.00264e-30 0)
(-1.30059e-31 -1.03574e-31 0)
(-1.36586e-31 -4.28674e-32 0)
(-3.22092e-32 -2.95931e-32 0)
(-8.67737e-33 -6.0335e-33 0)
(-1.63165e-33 -1.16842e-33 0)
(-3.01846e-34 -1.79268e-34 0)
(-4.74285e-35 -2.62206e-35 0)
(-7.11422e-36 -3.45876e-36 0)
(-9.67321e-37 -4.61938e-37 0)
(-1.27222e-37 -7.18546e-38 0)
(-1.55822e-38 -1.63325e-38 0)
(-2.83207e-39 -1.62657e-38 0)
(-3.44898e-39 -2.522e-40 0)
(-1.79251e-39 1.45623e-38 0)
(6.10268e-40 1.6511e-38 0)
(4.58227e-40 8.49397e-39 0)
(8.60328e-40 1.21171e-38 0)
(2.36544e-39 2.63415e-40 0)
(4.03518e-40 -1.07666e-38 0)
(-1.00511e-39 -3.60909e-39 0)
(-3.5515e-40 -1.04478e-39 0)
(-1.06427e-40 -2.16415e-40 0)
(-2.24807e-41 -4.03792e-41 0)
(-4.2595e-42 -6.4701e-42 0)
(-6.90627e-43 -9.57654e-43 0)
(-1.03214e-43 -1.29041e-43 0)
(-1.40146e-44 -1.6321e-44 0)
(-1.71741e-45 -1.88398e-45 0)
(6.10692e-46 3.66206e-46 0)
(9.62714e-45 7.05433e-45 0)
(1.09845e-43 8.34669e-44 0)
(1.20989e-42 9.56189e-43 0)
(1.28987e-41 1.06055e-41 0)
(1.32471e-40 1.13934e-40 0)
(1.31256e-39 1.17895e-39 0)
(1.24484e-38 1.17539e-38 0)
(1.13493e-37 1.11395e-37 0)
(9.80634e-37 9.95341e-37 0)
(8.11389e-36 7.94331e-36 0)
(6.24661e-35 5.10209e-35 0)
(4.57866e-34 1.1104e-34 0)
(2.98176e-33 -3.56327e-33 0)
(1.81249e-32 -8.31138e-32 0)
(8.28155e-32 -1.11904e-30 0)
(3.24511e-31 -1.11376e-29 0)
(-2.81096e-32 -6.27994e-31 0)
(-2.89843e-33 -1.03807e-31 0)
(-1.77135e-33 -1.59724e-32 0)
(-9.37617e-34 -2.16192e-33 0)
(-2.30812e-34 -3.15963e-34 0)
(-5.1247e-35 -4.44443e-35 0)
(-8.97258e-36 -6.33555e-36 0)
(-1.45444e-36 -8.45748e-37 0)
(-2.08891e-37 -1.11136e-37 0)
(-2.83816e-38 -1.5036e-38 0)
(-3.55354e-39 -2.5449e-39 0)
(-5.16033e-40 -1.74594e-39 0)
(-3.47372e-40 -7.69944e-41 0)
(-1.67026e-40 1.33852e-39 0)
(5.16086e-41 1.53369e-39 0)
(4.06793e-41 7.96219e-40 0)
(7.70546e-41 1.12447e-39 0)
(2.09811e-40 2.52297e-41 0)
(3.62753e-41 -9.96292e-40 0)
(-8.85646e-41 -3.37838e-40 0)
(-3.16761e-41 -9.89309e-41 0)
(-9.59013e-42 -2.07014e-41 0)
(-2.04433e-42 -3.89653e-42 0)
(-3.90304e-43 -6.2922e-43 0)
(-6.37185e-44 -9.37457e-44 0)
(-9.57475e-45 -1.27054e-44 0)
(-1.27227e-45 -1.61526e-45 0)
(2.73559e-46 -1.92508e-46 0)
(5.32947e-45 -2.97564e-47 0)
(6.30584e-44 -1.01302e-46 0)
(7.22037e-43 -1.17e-45 0)
(8.00454e-42 -1.34272e-44 0)
(8.59701e-41 -1.49197e-43 0)
(8.90102e-40 -1.60547e-42 0)
(8.90341e-39 -1.66238e-41 0)
(8.53249e-38 -1.65484e-40 0)
(7.87858e-37 -1.55493e-39 0)
(6.90292e-36 -1.35187e-38 0)
(5.81616e-35 -9.86698e-38 0)
(4.56643e-34 -4.30273e-37 0)
(3.4448e-33 3.86048e-36 0)
(2.31235e-32 1.37499e-34 0)
(1.48573e-31 2.35386e-33 0)
(7.17548e-31 2.87902e-32 0)
(3.30642e-30 2.67303e-31 0)
(1.48352e-32 -6.39579e-31 0)
(-8.9175e-33 -1.03905e-31 0)
(-1.90613e-33 -1.26797e-32 0)
(-5.15067e-34 -1.27383e-33 0)
(-9.33957e-35 -1.24801e-34 0)
(-1.70168e-35 -1.29919e-35 0)
(-2.64561e-36 -1.5728e-36 0)
(-3.95378e-37 -1.99938e-37 0)
(-5.37534e-38 -2.59667e-38 0)
(-6.9878e-39 -3.33406e-39 0)
(-8.47454e-40 -4.68602e-40 0)
(-1.066e-40 -1.92559e-40 0)
(-3.76068e-41 -1.34138e-41 0)
(-1.54417e-41 1.17295e-40 0)
(4.1921e-42 1.36006e-40 0)
(3.48766e-42 7.12262e-41 0)
(6.66357e-42 9.96529e-41 0)
(1.80005e-41 2.29913e-42 0)
(3.14282e-42 -8.8066e-41 0)
(-7.56795e-42 -3.0189e-41 0)
(-2.73388e-42 -8.9261e-42 0)
(-8.34762e-43 -1.88452e-42 0)
(-1.79307e-43 -3.57378e-43 0)
(-3.44521e-44 -5.81035e-44 0)
(-5.65696e-45 -8.70608e-45 0)
(-8.54033e-46 -1.18624e-45 0)
(-1.12386e-46 -1.55087e-46 0)
(4.41358e-47 -6.50284e-47 0)
(7.12024e-46 -5.87908e-46 0)
(8.36024e-45 -7.11402e-45 0)
(9.50379e-44 -8.39128e-44 0)
(1.04536e-42 -9.61445e-43 0)
(1.11277e-41 -1.06657e-41 0)
(1.14096e-40 -1.14602e-40 0)
(1.12833e-39 -1.18603e-39 0)
(1.06792e-38 -1.18258e-38 0)
(9.71176e-38 -1.12062e-37 0)
(8.36884e-37 -1.00066e-36 0)
(6.89991e-36 -7.96689e-36 0)
(5.29206e-35 -5.07429e-35 0)
(3.85728e-34 -1.00108e-34 0)
(2.49742e-33 3.77582e-33 0)
(1.50144e-32 8.62481e-32 0)
(6.78451e-32 1.15509e-30 0)
(2.5617e-31 1.1457e-29 0)
(-1.28509e-33 -1.57281e-31 0)
(6.18286e-34 -3.74554e-32 0)
(1.17026e-34 -5.44387e-33 0)
(1.308e-35 -5.9055e-34 0)
(-2.53375e-37 -5.84605e-35 0)
(-5.08184e-37 -5.68511e-36 0)
(-1.351e-37 -6.10907e-37 0)
(-2.70799e-38 -6.93674e-38 0)
(-4.42847e-39 -8.20943e-39 0)
(-6.54729e-40 -9.5948e-40 0)
(-8.72261e-41 -1.14803e-40 0)
(-1.15806e-41 -2.53684e-41 0)
(-3.56255e-42 -2.28984e-42 0)
(-1.35279e-42 9.89524e-42 0)
(3.27896e-43 1.16726e-41 0)
(2.87588e-43 6.16116e-42 0)
(5.53956e-43 8.55547e-42 0)
(1.4854e-42 2.01993e-43 0)
(2.61595e-43 -7.54434e-42 0)
(-6.22586e-43 -2.60961e-42 0)
(-2.27009e-43 -7.77815e-43 0)
(-6.98175e-44 -1.65443e-43 0)
(-1.50987e-44 -3.15714e-44 0)
(-2.91706e-45 -5.16236e-45 0)
(-4.81515e-46 -7.77227e-46 0)
(-7.43067e-47 -1.06383e-46 0)
(-2.65669e-47 -1.43008e-47 0)
(-2.0732e-46 -1.02413e-47 0)
(-2.50223e-45 -1.07034e-46 0)
(-2.95201e-44 -1.29008e-45 0)
(-3.38324e-43 -1.51245e-44 0)
(-3.75466e-42 -1.72114e-43 0)
(-4.03748e-41 -1.89514e-42 0)
(-4.18596e-40 -2.01872e-41 0)
(-4.1937e-39 -2.06825e-40 0)
(-4.02615e-38 -2.03446e-39 0)
(-3.72543e-37 -1.88957e-38 0)
(-3.27187e-36 -1.62382e-37 0)
(-2.76473e-35 -1.18228e-36 0)
(-2.17772e-34 -5.42683e-36 0)
(-1.64943e-33 3.4156e-35 0)
(-1.11206e-32 1.34911e-33 0)
(-7.18487e-32 2.2421e-32 0)
(-3.4896e-31 2.56065e-31 0)
(-1.62112e-30 2.07249e-30 0)
(-1.66428e-32 -6.73491e-31 0)
(8.69681e-33 -1.08543e-31 0)
(1.71266e-33 -1.23547e-32 0)
(3.77023e-34 -1.08087e-33 0)
(5.63401e-35 -7.33936e-35 0)
(8.34204e-36 -3.71773e-36 0)
(1.06988e-36 -7.87497e-38 0)
(1.33373e-37 1.14396e-38 0)
(1.53303e-38 2.33971e-39 0)
(1.7014e-39 2.97934e-40 0)
(1.78245e-40 3.25729e-41 0)
(1.79522e-41 2.19929e-42 0)
(1.54683e-42 2.18839e-43 0)
(6.21344e-44 8.51152e-43 0)
(4.09318e-44 9.68266e-43 0)
(2.44029e-44 5.12928e-43 0)
(4.47585e-44 7.06802e-43 0)
(1.1896e-43 1.70353e-44 0)
(2.11024e-44 -6.22016e-43 0)
(-4.97321e-44 -2.16982e-43 0)
(-1.82791e-44 -6.51166e-44 0)
(-5.65614e-45 -1.39423e-44 0)
(-1.23027e-45 -2.67501e-45 0)
(-2.38796e-46 -4.39607e-46 0)
(-3.96087e-47 -6.64554e-47 0)
(-6.39622e-48 -9.03925e-48 0)
(-5.56896e-48 -1.9453e-50 0)
(-5.88939e-47 1.46428e-47 0)
(-7.09938e-46 1.84488e-46 0)
(-8.32524e-45 2.24195e-45 0)
(-9.47739e-44 2.64674e-44 0)
(-1.04415e-42 3.03547e-43 0)
(-1.11356e-41 3.37135e-42 0)
(-1.14419e-40 3.62862e-41 0)
(-1.13435e-39 3.76642e-40 0)
(-1.07667e-38 3.77964e-39 0)
(-9.82482e-38 3.63894e-38 0)
(-8.49965e-37 3.38588e-37 0)
(-7.042e-36 3.00914e-36 0)
(-5.43149e-35 2.60578e-35 0)
(-3.98763e-34 2.15532e-34 0)
(-2.603e-33 1.7703e-33 0)
(-1.58278e-32 1.35282e-32 0)
(-7.24102e-32 9.91343e-32 0)
(-2.80558e-31 5.57192e-31 0)
(2.04431e-32 -6.6067e-31 0)
(-1.07544e-32 -1.05433e-31 0)
(-2.27722e-33 -1.16541e-32 0)
(-5.35731e-34 -9.66575e-34 0)
(-8.61249e-35 -5.43578e-35 0)
(-1.37535e-35 -8.83836e-37 0)
(-1.91122e-36 3.35442e-37 0)
(-2.58289e-37 6.72135e-38 0)
(-3.22434e-38 9.54157e-39 0)
(-3.88416e-39 1.17009e-39 0)
(-4.41923e-40 1.34079e-40 0)
(-4.84674e-41 1.44032e-41 0)
(-5.09191e-42 1.49453e-42 0)
(-5.21318e-43 2.14957e-43 0)
(-4.79691e-44 9.17845e-44 0)
(-2.90945e-45 4.26805e-44 0)
(3.05123e-45 5.67808e-44 0)
(9.17605e-45 1.39991e-45 0)
(1.64233e-45 -4.97807e-44 0)
(-3.84386e-45 -1.74921e-44 0)
(-1.42335e-45 -5.2797e-45 0)
(-4.42733e-46 -1.13683e-45 0)
(-9.67968e-47 -2.19115e-46 0)
(-1.88641e-47 -3.61633e-47 0)
(-3.13986e-48 -5.4834e-48 0)
(-4.94204e-49 -7.11975e-49 0)
(-2.55338e-49 4.77268e-49 0)
(-2.32672e-48 7.32206e-48 0)
(-2.76237e-47 9.11362e-47 0)
(-3.19009e-46 1.10235e-45 0)
(-3.56759e-45 1.29508e-44 0)
(-3.85088e-44 1.47741e-43 0)
(-4.00931e-43 1.63164e-42 0)
(-4.00601e-42 1.74502e-41 0)
(-3.84107e-41 1.79898e-40 0)
(-3.5047e-40 1.79069e-39 0)
(-3.04728e-39 1.70835e-38 0)
(-2.48679e-38 1.5698e-37 0)
(-1.91408e-37 1.37245e-36 0)
(-1.34745e-36 1.15655e-35 0)
(-8.79274e-36 9.18249e-35 0)
(-4.94588e-35 7.05412e-34 0)
(-2.48768e-34 4.93484e-33 0)
(-8.9305e-34 3.23944e-32 0)
(-2.58491e-33 1.62614e-31 0)
(2.05507e-32 -9.34579e-32 0)
(-1.21245e-32 -2.13394e-32 0)
(-2.74902e-33 -2.202e-33 0)
(-7.40153e-34 -7.00919e-35 0)
(-1.33804e-34 2.96101e-35 0)
(-2.4016e-35 7.90648e-36 0)
(-3.68798e-36 1.45217e-36 0)
(-5.44049e-37 2.17237e-37 0)
(-7.31847e-38 2.97542e-38 0)
(-9.4035e-39 3.7351e-39 0)
(-1.13136e-39 4.43967e-40 0)
(-1.30274e-40 4.9755e-41 0)
(-1.42474e-41 5.33397e-42 0)
(-1.49732e-42 5.51036e-43 0)
(-1.50502e-43 5.97648e-44 0)
(-1.44882e-44 8.31516e-45 0)
(-1.10458e-45 4.85925e-45 0)
(5.70174e-46 1.50632e-46 0)
(1.13835e-46 -3.85052e-45 0)
(-2.89874e-46 -1.36317e-45 0)
(-1.07787e-46 -4.13548e-46 0)
(-3.3659e-47 -8.9498e-47 0)
(-7.39099e-48 -1.73187e-47 0)
(-1.44378e-48 -2.86886e-48 0)
(-2.21161e-49 -4.32276e-49 0)
(2.26279e-49 -1.33387e-51 0)
(3.35711e-48 7.69735e-49 0)
(4.18313e-47 9.99913e-48 0)
(5.0668e-46 1.25307e-46 0)
(5.96225e-45 1.52937e-45 0)
(6.81453e-44 1.81409e-44 0)
(7.54247e-43 2.0915e-43 0)
(8.08719e-42 2.33618e-42 0)
(8.36156e-41 2.53064e-41 0)
(8.35036e-40 2.64522e-40 0)
(7.99364e-39 2.67634e-39 0)
(7.36814e-38 2.60069e-38 0)
(6.45059e-37 2.44859e-37 0)
(5.42007e-36 2.20854e-36 0)
(4.25109e-35 1.95392e-35 0)
(3.18182e-34 1.66361e-34 0)
(2.12462e-33 1.42177e-33 0)
(1.32268e-32 1.13648e-32 0)
(6.22006e-32 8.70963e-32 0)
(2.46119e-31 5.08902e-31 0)
(-2.22325e-32 -6.00813e-32 0)
(-9.45181e-33 -1.01542e-32 0)
(-3.67588e-33 3.9645e-33 0)
(-1.50818e-33 1.30348e-33 0)
(-3.41393e-34 3.00655e-34 0)
(-7.18202e-35 5.07655e-35 0)
(-1.22004e-35 7.79903e-36 0)
(-1.93654e-36 1.06551e-36 0)
(-2.74279e-37 1.37784e-37 0)
(-3.66617e-38 1.66139e-38 0)
(-4.54498e-39 1.91525e-39 0)
(-5.36115e-40 2.09538e-40 0)
(-5.97696e-41 2.2026e-41 0)
(-6.38146e-42 2.21829e-42 0)
(-6.50959e-43 2.15882e-43 0)
(-6.39116e-44 2.04112e-44 0)
(-6.01981e-45 2.15853e-45 0)
(-5.00732e-46 1.68628e-46 0)
(-3.95236e-47 -2.76536e-46 0)
(-2.52634e-47 -1.02146e-46 0)
(-8.2584e-48 -3.13662e-47 0)
(-2.50941e-48 -6.83008e-48 0)
(-5.49001e-49 -1.32703e-48 0)
(-1.02738e-49 -2.21654e-49 0)
(4.60567e-50 -4.81571e-50 0)
(8.41271e-49 -1.99299e-49 0)
(1.08555e-47 -2.55119e-48 0)
(1.36039e-46 -3.25999e-47 0)
(1.66045e-45 -4.0577e-46 0)
(1.96968e-44 -4.91622e-45 0)
(2.27102e-43 -5.78555e-44 0)
(2.53679e-42 -6.61199e-43 0)
(2.7479e-41 -7.31531e-42 0)
(2.87165e-40 -7.83797e-41 0)
(2.90327e-39 -8.09161e-40 0)
(2.81494e-38 -8.05789e-39 0)
(2.63522e-37 -7.6626e-38 0)
(2.34368e-36 -6.95716e-37 0)
(2.01132e-35 -5.86477e-36 0)
(1.61048e-34 -4.50421e-35 0)
(1.24649e-33 -2.79652e-34 0)
(8.5904e-33 -1.04663e-33 0)
(5.73706e-32 6.08156e-33 0)
(2.87298e-31 1.5133e-31 0)
(1.42375e-30 1.58214e-30 0)
(-9.59397e-32 -4.89621e-31 0)
(-1.95105e-31 -3.9009e-32 0)
(-4.55929e-32 2.62722e-32 0)
(-1.20294e-32 6.5426e-33 0)
(-2.21509e-33 1.37258e-33 0)
(-4.02047e-34 2.16137e-34 0)
(-6.22752e-35 3.19603e-35 0)
(-9.24201e-36 4.22565e-36 0)
(-1.24761e-36 5.34308e-37 0)
(-1.60754e-37 6.31433e-38 0)
(-1.93728e-38 7.16658e-39 0)
(-2.23428e-39 7.73067e-40 0)
(-2.44606e-40 8.03184e-41 0)
(-2.57296e-41 8.0022e-42 0)
(-2.59243e-42 7.70227e-43 0)
(-2.51943e-43 7.15181e-44 0)
(-2.35948e-44 6.45514e-45 0)
(-2.13526e-45 5.60842e-46 0)
(-1.87004e-46 2.61934e-47 0)
(-1.74828e-47 -3.69439e-48 0)
(-1.88785e-48 -2.00886e-48 0)
(-2.84549e-49 -4.82097e-49 0)
(-4.87988e-50 -9.69074e-50 0)
(-2.2908e-50 -1.83578e-50 0)
(-1.96324e-49 -3.08502e-50 0)
(-2.55467e-48 -3.81835e-49 0)
(-3.2641e-47 -5.01104e-48 0)
(-4.06158e-46 -6.42106e-47 0)
(-4.9192e-45 -8.01408e-46 0)
(-5.78668e-44 -9.73854e-45 0)
(-6.61026e-43 -1.14971e-43 0)
(-7.30973e-42 -1.31857e-42 0)
(-7.82847e-41 -1.46434e-41 0)
(-8.08038e-40 -1.5756e-40 0)
(-8.05366e-39 -1.63382e-39 0)
(-7.68827e-38 -1.63479e-38 0)
(-7.06581e-37 -1.56076e-37 0)
(-6.15961e-36 -1.41929e-36 0)
(-5.15608e-35 -1.18608e-35 0)
(-4.02032e-34 -8.75821e-35 0)
(-3.00258e-33 -4.54407e-34 0)
(-1.99499e-32 2.29218e-34 0)
(-1.25841e-31 5.25693e-32 0)
(-5.97191e-31 8.70298e-31 0)
(-2.62171e-30 9.76999e-30 0)
(-1.09448e-30 8.19273e-31 0)
(-1.50787e-30 1.37625e-31 0)
(-2.46473e-31 1.59815e-32 0)
(-6.06586e-32 1.41465e-33 0)
(-1.00664e-32 9.69493e-35 0)
(-1.75288e-33 4.96664e-36 0)
(-2.59274e-34 1.11985e-37 0)
(-3.74689e-35 -1.41804e-38 0)
(-4.92804e-36 -2.97793e-39 0)
(-6.23569e-37 -3.81071e-40 0)
(-7.38881e-38 -4.22835e-41 0)
(-8.41089e-39 -4.33108e-42 0)
(-9.09837e-40 -4.23595e-43 0)
(-9.47638e-41 -3.97307e-44 0)
(-9.46226e-42 -3.60324e-45 0)
(-9.12489e-43 -3.1516e-46 0)
(-8.48558e-44 -2.52394e-47 0)
(-7.64351e-45 -2.18679e-48 0)
(-6.66743e-46 -1.69068e-48 0)
(-5.65971e-47 -5.57593e-49 0)
(-4.68943e-48 -1.67728e-49 0)
(-3.85173e-49 -3.65605e-50 0)
(-3.3772e-50 -7.02151e-51 0)
(-2.93463e-50 3.1457e-52 0)
(-3.57779e-49 2.05203e-50 0)
(-4.69188e-48 2.78209e-49 0)
(-6.00604e-47 3.64939e-48 0)
(-7.48786e-46 4.66895e-47 0)
(-9.08809e-45 5.81747e-46 0)
(-1.07151e-43 7.05623e-45 0)
(-1.2271e-42 8.31385e-44 0)
(-1.36066e-41 9.51357e-43 0)
(-1.46173e-40 1.05387e-41 0)
(-1.51384e-39 1.13036e-40 0)
(-1.51474e-38 1.16694e-39 0)
(-1.45217e-37 1.15844e-38 0)
(-1.34148e-36 1.08752e-37 0)
(-1.17596e-35 9.4857e-37 0)
(-9.91444e-35 7.06082e-36 0)
(-7.7897e-34 3.44262e-35 0)
(-5.88177e-33 -1.78333e-34 0)
(-3.95225e-32 -8.05539e-33 0)
(-2.54289e-31 -1.42487e-31 0)
(-1.22988e-30 -1.7607e-30 0)
(-5.68033e-30 -1.64293e-29 0)
(-1.2277e-31 2.07111e-30 0)
(-1.81067e-31 3.00678e-31 0)
(-4.2532e-32 4.10712e-33 0)
(-1.13223e-32 -3.83531e-33 0)
(-2.10348e-33 -1.18185e-33 0)
(-3.84821e-34 -2.0555e-34 0)
(-5.9965e-35 -3.15782e-35 0)
(-8.94219e-36 -4.23126e-36 0)
(-1.21167e-36 -5.37456e-37 0)
(-1.566e-37 -6.3592e-38 0)
(-1.89192e-38 -7.21796e-39 0)
(-2.18651e-39 -7.78388e-40 0)
(-2.39796e-40 -8.08412e-41 0)
(-2.52617e-41 -8.05133e-42 0)
(-2.5486e-42 -7.74662e-43 0)
(-2.47967e-43 -7.18927e-44 0)
(-2.3247e-44 -6.46427e-45 0)
(-2.1091e-45 -5.62993e-46 0)
(-1.85194e-46 -4.7735e-47 0)
(-1.57907e-47 -3.95323e-48 0)
(-1.30896e-48 -3.25003e-49 0)
(-1.05998e-49 -2.69699e-50 0)
(-7.82943e-51 -2.11535e-51 0)
(7.69185e-51 3.19733e-51 0)
(1.12426e-49 4.70465e-50 0)
(1.47712e-48 6.33191e-49 0)
(1.89235e-47 8.31354e-48 0)
(2.36128e-46 1.06477e-46 0)
(2.8687e-45 1.32824e-45 0)
(3.38592e-44 1.61313e-44 0)
(3.88231e-43 1.90323e-43 0)
(4.31069e-42 2.1812e-42 0)
(4.63805e-41 2.42032e-41 0)
(4.81169e-40 2.60125e-40 0)
(4.82414e-39 2.69242e-39 0)
(4.63521e-38 2.68385e-38 0)
(4.29312e-37 2.53941e-37 0)
(3.7745e-36 2.25634e-36 0)
(3.19352e-35 1.76872e-35 0)
(2.51904e-34 1.06507e-34 0)
(1.91113e-33 6.48696e-35 0)
(1.29081e-32 -1.11553e-32 0)
(8.35633e-32 -2.3012e-31 0)
(4.0665e-31 -2.98706e-30 0)
(1.89267e-30 -2.88994e-29 0)
(-5.27208e-32 9.75028e-31 0)
(6.50388e-33 1.70581e-31 0)
(-9.07799e-35 1.5336e-32 0)
(-6.70769e-34 4.68477e-34 0)
(-2.07736e-34 -1.69408e-34 0)
(-5.10605e-35 -4.26709e-35 0)
(-9.3992e-36 -7.38294e-36 0)
(-1.57148e-36 -1.04871e-36 0)
(-2.3035e-37 -1.37455e-37 0)
(-3.15704e-38 -1.66458e-38 0)
(-3.98746e-39 -1.92125e-39 0)
(-4.77279e-40 -2.10235e-40 0)
(-5.38344e-41 -2.20968e-41 0)
(-5.80311e-42 -2.22462e-42 0)
(-5.96722e-43 -2.16041e-43 0)
(-5.89932e-44 -2.02206e-44 0)
(-5.60605e-45 -1.83186e-45 0)
(-5.14525e-46 -1.60645e-46 0)
(-4.56305e-47 -1.36826e-47 0)
(-3.92292e-48 -1.13322e-48 0)
(-3.27227e-49 -9.17596e-50 0)
(-2.64342e-50 -7.30672e-51 0)
(-2.55103e-52 -6.58626e-52 0)
(2.52741e-50 -1.17253e-51 0)
(3.42165e-49 -1.55143e-50 0)
(4.49246e-48 -2.08743e-49 0)
(5.75362e-47 -2.74204e-48 0)
(7.17704e-46 -3.51385e-47 0)
(8.71611e-45 -4.38601e-46 0)
(1.02834e-43 -5.33042e-45 0)
(1.17855e-42 -6.29401e-44 0)