/*--------------------------------*- C++ -*----------------------------------*\
| =========                 |                                                 |
| \\      /  F ield         | OpenFOAM: The Open Source CFD Toolbox           |
|  \\    /   O peration     | Version:  2.4.0                                 |
|   \\  /    A nd           | Web:      www.OpenFOAM.org                      |
|    \\/     M anipulation  |                                                 |
\*---------------------------------------------------------------------------*/
FoamFile
{
    version     2.0;
    format      ascii;
    class       volVectorField;
    location    "0.7";
    object      U;
}
// * * * * * * * * * * * * * * * * * * * * * * * * * * * * * * * * * * * * * //

dimensions      [0 1 -1 0 0 0 0];

internalField   nonuniform List<vector> 
1935
(
(9.86941e-36 3.07849e-36 0)
(8.6867e-35 2.07374e-35 0)
(4.32674e-34 1.4478e-34 0)
(4.18116e-33 1.0895e-34 0)
(3.8267e-33 -2.78214e-34 0)
(-3.82493e-33 -2.77824e-34 0)
(-4.16947e-33 1.12699e-34 0)
(-3.35297e-34 1.68928e-34 0)
(4.34289e-34 1.8671e-34 0)
(4.61543e-33 2.60879e-34 0)
(8.10504e-33 -1.44383e-34 0)
(5.31332e-34 -3.87163e-34 0)
(-3.29505e-33 1.08949e-34 0)
(3.92533e-33 2.53722e-34 0)
(4.19296e-33 -1.12746e-34 0)
(4.34289e-34 -1.45224e-34 0)
(8.71688e-35 -2.07959e-35 0)
(1.02335e-35 -3.36057e-36 0)
(1.43298e-36 -3.94538e-37 0)
(1.5944e-37 -4.76023e-38 0)
(1.84644e-38 -4.97496e-39 0)
(1.88349e-39 -5.15446e-40 0)
(1.91177e-40 -4.88838e-41 0)
(1.94812e-41 -4.13694e-42 0)
(1.95987e-41 4.17009e-42 0)
(1.92663e-40 4.92449e-41 0)
(1.89968e-39 5.1958e-40 0)
(1.86373e-38 5.01927e-39 0)
(1.61129e-37 4.80681e-38 0)
(1.44953e-36 3.98988e-37 0)
(1.03741e-35 3.4031e-36 0)
(8.84386e-35 2.11418e-35 0)
(4.43053e-34 1.4818e-34 0)
(4.26958e-33 1.30086e-34 0)
(4.26958e-33 -1.30086e-34 0)
(4.43053e-34 -1.4818e-34 0)
(8.84386e-35 -2.11418e-35 0)
(1.03741e-35 -3.4031e-36 0)
(1.44953e-36 -3.98989e-37 0)
(1.61128e-37 -4.807e-38 0)
(1.86297e-38 -5.03449e-39 0)
(1.85259e-39 -6.18961e-40 0)
(-2.63084e-42 -6.69644e-40 0)
(-7.90694e-40 -2.59661e-39 0)
(3.29264e-36 -1.39402e-36 0)
(2.59243e-35 -1.09678e-35 0)
(1.26293e-34 -7.65083e-35 0)
(7.9069e-34 -5.74218e-35 0)
(6.87371e-34 1.46795e-34 0)
(-6.86737e-34 1.46605e-34 0)
(-7.86658e-34 -5.93094e-35 0)
(-9.67418e-35 -8.92084e-35 0)
(1.2687e-34 -9.86858e-35 0)
(9.17552e-34 -1.37535e-34 0)
(1.50754e-33 7.63154e-35 0)
(1.56296e-34 2.04217e-34 0)
(-5.30955e-34 -5.74215e-35 0)
(7.17364e-34 -1.33927e-34 0)
(7.94767e-34 5.93316e-35 0)
(1.2687e-34 7.67244e-35 0)
(2.60435e-35 1.10053e-35 0)
(3.51851e-36 1.69798e-36 0)
(5.07068e-37 1.92408e-37 0)
(6.00867e-38 2.2222e-38 0)
(7.12297e-39 2.24204e-39 0)
(7.523e-40 2.24741e-40 0)
(7.77449e-41 2.07364e-41 0)
(8.1091e-42 1.71611e-42 0)
(8.15933e-42 -1.72931e-42 0)
(7.83709e-41 -2.0883e-41 0)
(7.5902e-40 -2.26456e-40 0)
(7.19312e-39 -2.26089e-39 0)
(6.07599e-38 -2.24257e-38 0)
(5.13424e-37 -1.94421e-37 0)
(3.57132e-36 -1.71792e-36 0)
(2.64889e-35 -1.11751e-35 0)
(1.29867e-34 -7.82255e-35 0)
(8.17171e-34 -6.85943e-35 0)
(8.17171e-34 6.85943e-35 0)
(1.29867e-34 7.82255e-35 0)
(2.64889e-35 1.11751e-35 0)
(3.57132e-36 1.71792e-36 0)
(5.13422e-37 1.9442e-37 0)
(6.07484e-38 2.24107e-38 0)
(7.11733e-39 2.14134e-39 0)
(2.85178e-40 -5.70678e-40 0)
(-1.90267e-39 -5.05099e-39 0)
(-8.29351e-39 -2.17926e-38 0)
(8.95096e-37 -4.88127e-37 0)
(5.89592e-36 -3.65277e-36 0)
(2.16262e-35 -2.04897e-35 0)
(1.0519e-34 -1.41763e-35 0)
(8.87033e-35 3.89932e-35 0)
(-8.85163e-35 3.89205e-35 0)
(-1.04125e-34 -1.48483e-35 0)
(-1.47883e-35 -2.47541e-35 0)
(2.17946e-35 -2.78858e-35 0)
(1.26982e-34 -3.59448e-35 0)
(2.00707e-34 2.04156e-35 0)
(2.85925e-35 5.31694e-35 0)
(-6.00734e-35 -1.41762e-35 0)
(9.5667e-35 -3.46645e-35 0)
(1.06268e-34 1.48571e-35 0)
(2.17946e-35 2.05726e-35 0)
(5.92504e-36 3.66646e-36 0)
(9.15509e-37 5.99513e-37 0)
(1.47312e-37 7.36666e-38 0)
(1.87014e-38 8.80754e-39 0)
(2.34057e-39 9.28405e-40 0)
(2.5703e-40 9.54054e-41 0)
(2.74015e-41 9.05728e-42 0)
(2.93257e-42 7.62637e-43 0)
(2.95131e-42 -7.68728e-43 0)
(2.76315e-41 -9.12385e-42 0)
(2.59451e-40 -9.61675e-41 0)
(2.36523e-39 -9.3662e-40 0)
(1.89305e-38 -8.89373e-39 0)
(1.4939e-37 -7.44979e-38 0)
(9.31815e-37 -6.07373e-37 0)
(6.05314e-36 -3.73113e-36 0)
(2.25581e-35 -2.10966e-35 0)
(1.1124e-34 -1.79064e-35 0)
(1.1124e-34 1.79064e-35 0)
(2.25581e-35 2.10966e-35 0)
(6.05314e-36 3.73113e-36 0)
(9.31814e-37 6.07372e-37 0)
(1.49379e-37 7.4485e-38 0)
(1.884e-38 8.78425e-39 0)
(1.76425e-39 5.46399e-41 0)
(-3.54491e-39 -5.85707e-39 0)
(-1.61021e-38 -3.84308e-38 0)
(-6.85944e-38 -1.6811e-37 0)
(1.70776e-37 -1.50199e-37 0)
(9.71186e-37 -1.01908e-36 0)
(2.70637e-36 -5.30585e-36 0)
(1.06692e-35 -3.5652e-36 0)
(8.79486e-36 1.0093e-35 0)
(-8.75655e-36 1.00697e-35 0)
(-1.04685e-35 -3.76928e-36 0)
(-1.56036e-36 -6.50815e-36 0)
(2.74042e-36 -7.37031e-36 0)
(1.34089e-35 -9.25776e-36 0)
(2.06046e-35 5.2812e-36 0)
(3.87761e-36 1.3658e-35 0)
(-4.90923e-36 -3.56494e-36 0)
(9.96573e-36 -8.86942e-36 0)
(1.08725e-35 3.77225e-36 0)
(2.74042e-36 5.3317e-36 0)
(9.76046e-37 1.02265e-36 0)
(1.70308e-37 1.81089e-37 0)
(2.97704e-38 2.36196e-38 0)
(4.00239e-39 2.97759e-39 0)
(5.21038e-40 3.26915e-40 0)
(5.90657e-41 3.47448e-41 0)
(6.44452e-42 3.38725e-42 0)
(7.04494e-43 2.90987e-43 0)
(7.0911e-43 -2.93391e-43 0)
(6.50048e-42 -3.41311e-42 0)
(5.96455e-41 -3.50355e-41 0)
(5.26823e-40 -3.2998e-40 0)
(4.0549e-39 -3.00889e-39 0)
(3.02311e-38 -2.39112e-38 0)
(1.73777e-37 -1.83733e-37 0)
(1.0017e-36 -1.04322e-36 0)
(2.87991e-36 -5.48851e-36 0)
(1.16702e-35 -4.60783e-36 0)
(1.16702e-35 4.60783e-36 0)
(2.87991e-36 5.48851e-36 0)
(1.00169e-36 1.04322e-36 0)
(1.73767e-37 1.83724e-37 0)
(3.01479e-38 2.38233e-38 0)
(3.38629e-39 2.257e-39 0)
(-3.96674e-39 -5.80621e-39 0)
(-2.88026e-38 -4.201e-38 0)
(-1.24529e-37 -2.76564e-37 0)
(-5.38322e-37 -1.23668e-36 0)
(2.39082e-38 -6.05901e-38 0)
(1.51436e-37 -2.11245e-37 0)
(2.83861e-37 -9.7922e-37 0)
(7.85895e-37 -6.34438e-37 0)
(6.28072e-37 1.84606e-36 0)
(-6.20734e-37 1.8413e-36 0)
(-7.50507e-37 -6.75294e-37 0)
(-1.04069e-37 -1.20936e-36 0)
(2.89131e-37 -1.37698e-36 0)
(1.07415e-36 -1.68466e-36 0)
(1.59074e-36 9.66168e-37 0)
(4.66167e-37 2.47915e-36 0)
(-1.60195e-37 -6.32743e-37 0)
(8.11189e-37 -1.60397e-36 0)
(8.20293e-37 6.75956e-37 0)
(2.89131e-37 9.7717e-37 0)
(1.49784e-37 2.0066e-37 0)
(2.90304e-38 3.74956e-38 0)
(5.48838e-39 5.13272e-39 0)
(7.73204e-40 6.70984e-40 0)
(1.04302e-40 7.60233e-41 0)
(1.21386e-41 8.27206e-42 0)
(1.35192e-42 8.23131e-43 0)
(1.50418e-43 7.17412e-44 0)
(1.51425e-43 -7.23498e-44 0)
(1.36399e-42 -8.29599e-43 0)
(1.22621e-41 -8.34375e-42 0)
(1.05513e-40 -7.67669e-41 0)
(7.83965e-40 -6.78418e-40 0)
(5.58026e-39 -5.20031e-39 0)
(2.96966e-38 -3.80889e-38 0)
(1.54475e-37 -2.05105e-37 0)
(3.12463e-37 -1.00938e-36 0)
(9.39493e-37 -8.37773e-37 0)
(9.39493e-37 8.37773e-37 0)
(3.12463e-37 1.00938e-36 0)
(1.54468e-37 2.05099e-37 0)
(2.96295e-38 3.80318e-38 0)
(5.0074e-39 4.65223e-39 0)
(-3.87868e-39 -4.06767e-39 0)
(-3.16982e-38 -3.92521e-38 0)
(-2.08032e-37 -2.74544e-37 0)
(-9.17718e-37 -1.84677e-36 0)
(-4.05025e-36 -8.49915e-36 0)
(-4.38003e-38 -2.26148e-37 0)
(4.06452e-38 -1.21067e-37 0)
(3.45394e-38 -2.25782e-37 0)
(3.80942e-38 -1.19401e-37 0)
(2.45168e-38 3.16097e-37 0)
(-2.18316e-38 3.17225e-37 0)
(-2.68499e-38 -1.15284e-37 0)
(-8.97442e-40 -2.10574e-37 0)
(2.73189e-38 -2.40403e-37 0)
(5.95141e-38 -2.89901e-37 0)
(8.0687e-38 1.66484e-37 0)
(5.24206e-38 4.25762e-37 0)
(2.94224e-38 -1.0718e-37 0)
(4.93729e-38 -2.74652e-37 0)
(3.7631e-38 1.15367e-37 0)
(2.73182e-38 1.68641e-37 0)
(2.09796e-38 3.60336e-38 0)
(4.42225e-39 7.06575e-39 0)
(8.86278e-40 1.00417e-39 0)
(1.29627e-40 1.35586e-40 0)
(1.79776e-41 1.57598e-41 0)
(2.13859e-42 1.75043e-42 0)
(2.42228e-43 1.77119e-43 0)
(2.73641e-44 1.56287e-44 0)
(2.75507e-44 -1.57642e-44 0)
(2.44446e-43 -1.78544e-43 0)
(2.161e-42 -1.76604e-42 0)
(1.81942e-41 -1.59196e-41 0)
(1.31518e-40 -1.37157e-40 0)
(9.02067e-40 -1.01814e-39 0)
(4.53341e-39 -7.18522e-39 0)
(2.17319e-38 -3.68987e-38 0)
(3.0818e-38 -1.74671e-37 0)
(5.39277e-38 -1.44063e-37 0)
(5.39273e-38 1.44062e-37 0)
(3.08137e-38 1.74668e-37 0)
(2.16881e-38 3.68666e-38 0)
(4.11346e-39 6.86015e-39 0)
(-2.72583e-39 -2.14228e-39 0)
(-2.98395e-38 -2.76457e-38 0)
(-2.08116e-37 -2.34816e-37 0)
(-1.39097e-36 -1.67967e-36 0)
(-6.30775e-36 -1.16474e-35 0)
(-2.84717e-35 -5.5697e-35 0)
(-3.27791e-37 -1.51847e-36 0)
(1.65213e-37 -5.83947e-37 0)
(6.64548e-38 -4.24689e-37 0)
(4.15225e-38 -9.82803e-38 0)
(6.88426e-39 3.20982e-38 0)
(4.34788e-39 4.59242e-38 0)
(3.31512e-39 -1.76767e-38 0)
(1.16704e-39 -3.23553e-38 0)
(2.54734e-39 -3.69945e-38 0)
(2.83761e-40 -4.39997e-38 0)
(-1.06345e-39 2.53068e-38 0)
(6.01143e-39 6.44994e-38 0)
(8.34542e-39 -1.60216e-38 0)
(1.32958e-39 -4.14953e-38 0)
(-1.46294e-39 1.73689e-38 0)
(2.54255e-39 2.56721e-38 0)
(2.8736e-39 5.68556e-39 0)
(6.42162e-40 1.15727e-39 0)
(1.34482e-40 1.69704e-40 0)
(2.02322e-41 2.35069e-41 0)
(2.86902e-42 2.79142e-42 0)
(3.47309e-43 3.1528e-43 0)
(3.98888e-44 3.23619e-44 0)
(4.56252e-45 2.88535e-45 0)
(4.5941e-45 -2.91083e-45 0)
(4.02614e-44 -3.26277e-44 0)
(3.51039e-43 -3.18163e-43 0)
(2.90465e-42 -2.82058e-42 0)
(2.05388e-41 -2.37892e-41 0)
(1.36996e-40 -1.72174e-40 0)
(6.59445e-40 -1.17792e-39 0)
(2.98715e-39 -5.83112e-39 0)
(3.04445e-39 -2.66541e-38 0)
(7.27601e-40 -2.18501e-38 0)
(7.2552e-40 2.18487e-38 0)
(3.01968e-39 2.66398e-38 0)
(2.73647e-39 5.67396e-39 0)
(-1.77306e-39 -4.31949e-40 0)
(-2.11862e-38 -1.57081e-38 0)
(-1.79496e-37 -1.4212e-37 0)
(-1.27498e-36 -1.23045e-36 0)
(-8.76219e-36 -9.08672e-36 0)
(-4.11363e-35 -6.54881e-35 0)
(-1.91759e-34 -3.30247e-34 0)
(-1.9587e-36 -9.65485e-36 0)
(1.4211e-36 -3.71212e-36 0)
(4.98227e-37 -2.62464e-36 0)
(3.06102e-37 -5.29654e-37 0)
(6.16439e-38 -9.52246e-38 0)
(1.31007e-38 -7.54239e-39 0)
(2.67045e-39 -4.47205e-39 0)
(4.91448e-40 -4.94121e-39 0)
(2.75397e-40 -5.426e-39 0)
(-5.04216e-40 -6.36529e-39 0)
(-9.64983e-40 3.66117e-39 0)
(7.01253e-40 9.31294e-39 0)
(1.37835e-39 -2.2907e-39 0)
(-1.9365e-40 -5.9783e-39 0)
(-6.43798e-40 2.49787e-39 0)
(2.45267e-40 3.71886e-39 0)
(3.75311e-40 8.44881e-40 0)
(8.73912e-41 1.77285e-40 0)
(1.88858e-41 2.6639e-41 0)
(2.9055e-42 3.76783e-42 0)
(4.19321e-43 4.5516e-43 0)
(5.15076e-44 5.21245e-44 0)
(5.98445e-45 5.41297e-45 0)
(6.91863e-46 4.86773e-46 0)
(6.96716e-46 -4.91139e-46 0)
(6.04132e-45 -5.45819e-45 0)
(5.20722e-44 -5.26109e-44 0)
(4.24659e-43 -4.60032e-43 0)
(2.9509e-42 -3.81444e-42 0)
(1.92523e-41 -2.70409e-41 0)
(8.98648e-41 -1.80587e-40 0)
(3.91181e-40 -8.6765e-40 0)
(3.12848e-40 -3.86863e-39 0)
(-3.62704e-40 -3.15834e-39 0)
(-3.72887e-40 3.1525e-39 0)
(1.9059e-40 3.80652e-39 0)
(-8.59851e-40 1.78e-40 0)
(-1.22216e-38 -6.98623e-39 0)
(-1.09747e-37 -7.20427e-38 0)
(-9.4417e-37 -6.60466e-37 0)
(-6.89019e-36 -5.91236e-36 0)
(-4.88911e-35 -4.5636e-35 0)
(-2.39642e-34 -3.48518e-34 0)
(-1.15504e-33 -1.89122e-33 0)
(-8.68961e-36 -5.90288e-35 0)
(1.2879e-35 -2.1615e-35 0)
(3.95154e-36 -1.52782e-35 0)
(2.08746e-36 -2.99076e-36 0)
(4.03905e-37 -5.58414e-37 0)
(7.77221e-38 -7.6343e-38 0)
(1.11761e-38 -1.05923e-38 0)
(1.54388e-39 -1.8161e-39 0)
(2.02519e-40 -8.63115e-40 0)
(-7.83677e-41 -8.69598e-40 0)
(-1.71037e-40 4.91957e-40 0)
(8.36814e-41 1.2519e-39 0)
(1.92077e-40 -3.05161e-40 0)
(-4.68581e-41 -8.02144e-40 0)
(-1.09424e-40 3.34513e-40 0)
(2.54552e-41 5.01512e-40 0)
(4.75624e-41 1.16541e-40 0)
(1.13824e-41 2.50468e-41 0)
(2.51728e-42 3.84067e-42 0)
(3.94005e-43 5.52451e-43 0)
(5.76673e-44 6.7706e-44 0)
(7.16789e-45 7.84333e-45 0)
(8.40763e-46 8.22683e-46 0)
(9.80626e-47 7.45235e-47 0)
(9.87577e-47 -7.52009e-47 0)
(8.48863e-46 -8.29656e-46 0)
(7.24776e-45 -7.9178e-45 0)
(5.84158e-44 -6.8446e-44 0)
(4.00304e-43 -5.59459e-43 0)
(2.56744e-42 -3.90041e-42 0)
(1.17149e-41 -2.55305e-41 0)
(4.96431e-41 -1.19822e-40 0)
(3.38523e-41 -5.22692e-40 0)
(-7.82992e-41 -4.26287e-40 0)
(-1.23019e-40 4.07903e-40 0)
(-5.09296e-40 3.25099e-40 0)
(-5.58716e-39 -2.10291e-39 0)
(-5.64826e-38 -2.34465e-38 0)
(-5.14416e-37 -2.41297e-37 0)
(-4.55058e-36 -2.28204e-36 0)
(-3.43229e-35 -2.13972e-35 0)
(-2.54304e-34 -1.77315e-34 0)
(-1.31215e-33 -1.47403e-33 0)
(-6.71479e-33 -8.99748e-33 0)
(-1.22836e-35 -3.17587e-34 0)
(1.2013e-34 -1.19582e-34 0)
(3.08334e-35 -8.73696e-35 0)
(1.28357e-35 -1.63205e-35 0)
(2.3229e-36 -2.93007e-36 0)
(4.24284e-37 -3.89612e-37 0)
(5.84742e-38 -5.02797e-38 0)
(7.7989e-39 -5.70385e-39 0)
(9.01576e-40 -7.02524e-40 0)
(8.57993e-41 -1.70219e-40 0)
(-1.35603e-41 5.76912e-41 0)
(1.07725e-41 1.60239e-40 0)
(2.42165e-41 -3.89362e-41 0)
(-6.81379e-42 -1.02833e-40 0)
(-1.47054e-41 4.28186e-41 0)
(2.75479e-42 6.45513e-41 0)
(5.75444e-42 1.52668e-41 0)
(1.40573e-42 3.34159e-42 0)
(3.16351e-43 5.20477e-43 0)
(5.02284e-44 7.58379e-44 0)
(7.43667e-45 9.39867e-45 0)
(9.33769e-46 1.09843e-45 0)
(1.10415e-46 1.16107e-46 0)
(1.29778e-47 1.05762e-47 0)
(1.307e-47 -1.06735e-47 0)
(1.11481e-46 -1.17104e-46 0)
(9.44165e-46 -1.10904e-45 0)
(7.53248e-45 -9.50352e-45 0)
(5.10135e-44 -7.68257e-44 0)
(3.22325e-43 -5.28867e-43 0)
(1.44144e-42 -3.4094e-42 0)
(5.92861e-42 -1.57313e-41 0)
(2.69329e-42 -6.76463e-41 0)
(-2.43313e-41 -5.83227e-41 0)
(-1.71549e-40 8.4174e-42 0)
(-1.80681e-39 -4.76413e-40 0)
(-1.90656e-38 -6.2168e-39 0)
(-1.9487e-37 -6.72005e-38 0)
(-1.81753e-36 -7.14324e-37 0)
(-1.6566e-35 -7.07163e-36 0)
(-1.299e-34 -7.16575e-35 0)
(-1.00679e-33 -6.61304e-34 0)
(-5.53038e-33 -6.30385e-33 0)
(-2.98927e-32 -4.48901e-32 0)
(3.9839e-34 -2.03195e-33 0)
(1.23503e-33 -6.31716e-34 0)
(2.74553e-34 -4.37145e-34 0)
(9.19714e-35 -7.76984e-35 0)
(1.51903e-35 -1.31612e-35 0)
(2.61159e-36 -1.67975e-36 0)
(3.44401e-37 -2.08845e-37 0)
(4.45737e-38 -2.27648e-38 0)
(5.0138e-39 -2.41632e-39 0)
(5.43929e-40 -2.44075e-40 0)
(5.20844e-41 -1.65319e-41 0)
(6.00893e-42 1.20899e-41 0)
(2.54699e-42 -3.54198e-42 0)
(-5.83762e-43 -8.98217e-42 0)
(-1.30309e-42 3.73267e-42 0)
(2.19444e-43 5.65123e-42 0)
(4.87906e-43 1.35941e-42 0)
(1.20877e-43 3.04819e-43 0)
(2.75334e-44 4.83713e-44 0)
(4.41615e-45 7.17777e-45 0)
(6.59117e-46 9.03092e-46 0)
(8.3349e-47 1.06989e-46 0)
(9.90985e-48 1.14415e-47 0)
(1.17066e-48 1.052e-48 0)
(1.17707e-48 -1.06175e-48 0)
(9.97311e-48 -1.15402e-47 0)
(8.3773e-47 -1.08021e-46 0)
(6.59995e-46 -9.1307e-46 0)
(4.37371e-45 -7.26878e-45 0)
(2.64675e-44 -4.9103e-44 0)
(1.0218e-43 -3.10206e-43 0)
(2.12642e-43 -1.38876e-42 0)
(-3.49381e-42 -5.75447e-42 0)
(-4.80824e-41 -2.88261e-42 0)
(-5.56551e-40 2.75399e-41 0)
(-6.36449e-39 2.64887e-40 0)
(-6.8403e-38 2.78726e-39 0)
(-7.18107e-37 2.6418e-38 0)
(-6.89022e-36 1.95977e-37 0)
(-6.54628e-35 1.1386e-37 0)
(-5.3553e-34 -3.29258e-35 0)
(-4.45686e-33 -8.55429e-34 0)
(-2.62278e-32 -1.37621e-32 0)
(-1.67032e-31 -1.54188e-31 0)
(1.02798e-32 -1.12428e-32 0)
(1.77513e-32 -4.14569e-33 0)
(3.06896e-33 -3.10862e-33 0)
(7.01079e-34 -4.84092e-34 0)
(1.00715e-34 -7.85655e-35 0)
(1.53759e-35 -9.50592e-36 0)
(1.89912e-36 -1.15213e-36 0)
(2.33348e-37 -1.2199e-37 0)
(2.53567e-38 -1.26868e-38 0)
(2.68253e-39 -1.21341e-39 0)
(2.61223e-40 -1.12316e-40 0)
(2.46911e-41 -8.76055e-42 0)
(2.32828e-42 -1.09957e-42 0)
(1.43495e-43 -7.69989e-43 0)
(-7.57308e-44 2.86692e-43 0)
(1.58495e-44 4.43416e-43 0)
(3.36099e-44 1.07907e-43 0)
(8.42105e-45 2.43854e-44 0)
(1.94673e-45 3.90062e-45 0)
(3.16023e-46 5.81758e-46 0)
(4.77012e-47 7.35599e-47 0)
(6.09036e-48 8.74128e-48 0)
(7.30248e-49 9.3747e-49 0)
(8.70203e-50 8.63495e-50 0)
(8.85835e-50 -8.6685e-50 0)
(7.53122e-49 -9.38442e-49 0)
(6.39957e-48 -8.71311e-48 0)
(5.19008e-47 -7.26412e-47 0)
(3.72602e-46 -5.63184e-46 0)
(2.70618e-45 -3.58238e-45 0)
(1.84069e-44 -1.94862e-44 0)
(1.62725e-43 -3.74889e-44 0)
(1.62915e-42 5.1181e-43 0)
(1.95384e-41 1.20285e-41 0)
(2.27761e-40 1.52955e-40 0)
(2.55776e-39 1.78136e-39 0)
(2.70289e-38 1.98893e-38 0)
(2.76198e-37 2.00541e-37 0)
(2.5967e-36 1.73901e-36 0)
(2.37351e-35 7.68414e-36 0)
(1.89466e-34 -1.16174e-34 0)
(1.48327e-33 -4.5465e-33 0)
(8.5172e-33 -8.55709e-32 0)
(4.78584e-32 -1.16416e-30 0)
(1.50858e-31 -9.51405e-32 0)
(1.81317e-31 -1.11611e-32 0)
(2.23153e-32 -8.92201e-34 0)
(4.8593e-33 -5.37487e-35 0)
(6.28904e-34 -2.22434e-36 0)
(9.30361e-35 -3.60175e-38 0)
(1.09632e-35 6.00251e-39 0)
(1.31793e-36 9.22337e-40 0)
(1.39456e-37 9.91852e-41 0)
(1.45228e-38 9.01799e-42 0)
(1.39078e-39 8.17144e-43 0)
(1.29546e-40 1.41815e-43 0)
(1.13582e-41 -1.34326e-44 0)
(9.60635e-43 -4.91651e-44 0)
(7.15457e-44 2.0608e-44 0)
(7.13201e-45 3.1398e-44 0)
(2.81989e-45 7.72605e-45 0)
(6.31209e-46 1.76729e-45 0)
(1.41546e-46 2.85709e-46 0)
(2.29095e-47 4.30113e-47 0)
(3.46116e-48 5.48353e-48 0)
(4.43276e-49 6.56145e-49 0)
(5.33064e-50 7.08021e-50 0)
(6.72453e-51 6.54784e-51 0)
(1.22607e-50 -6.6443e-51 0)
(1.46222e-49 -7.19579e-50 0)
(1.86785e-48 -6.71086e-49 0)
(2.47344e-47 -5.67641e-48 0)
(3.31132e-46 -4.55369e-47 0)
(4.48302e-45 -3.1877e-46 0)
(5.97216e-44 -2.20434e-45 0)
(7.83161e-43 -1.34265e-44 0)
(9.91014e-42 -1.05264e-43 0)
(1.21823e-40 -9.47371e-43 0)
(1.4279e-39 -1.13112e-41 0)
(1.62082e-38 -1.31691e-40 0)
(1.73149e-37 -1.44897e-39 0)
(1.79638e-36 -1.37652e-38 0)
(1.71344e-35 -9.47856e-38 0)
(1.60215e-34 3.42102e-37 0)
(1.30572e-33 2.9121e-35 0)
(1.06334e-32 7.27321e-34 0)
(6.32594e-32 1.23561e-32 0)
(3.90616e-31 1.57733e-31 0)
(1.54004e-32 -9.29686e-32 0)
(1.51093e-32 -8.55305e-33 0)
(2.67341e-33 2.05471e-33 0)
(6.25963e-34 4.17792e-34 0)
(9.17263e-35 7.5432e-35 0)
(1.42334e-35 9.40584e-36 0)
(1.77836e-36 1.15298e-36 0)
(2.20499e-37 1.22481e-37 0)
(2.41252e-38 1.2747e-38 0)
(2.56653e-39 1.21843e-39 0)
(2.51173e-40 1.13261e-40 0)
(2.37626e-41 9.90854e-42 0)
(2.11443e-42 8.38324e-43 0)
(1.81456e-43 6.43214e-44 0)
(1.4442e-44 6.77353e-45 0)
(1.24396e-45 2.63315e-45 0)
(2.45901e-46 5.83308e-46 0)
(4.65719e-47 1.29499e-46 0)
(9.85543e-48 2.08657e-47 0)
(1.57796e-48 3.14156e-48 0)
(2.3802e-49 4.01514e-49 0)
(3.05617e-50 4.81356e-50 0)
(3.68608e-51 5.20379e-51 0)
(4.6693e-52 4.54641e-52 0)
(8.50121e-52 -9.44541e-52 0)
(1.00284e-50 -1.26761e-50 0)
(1.26345e-49 -1.66048e-49 0)
(1.64401e-48 -2.21268e-48 0)
(2.15998e-47 -3.02444e-47 0)
(2.86196e-46 -4.14302e-46 0)
(3.73287e-45 -5.68284e-45 0)
(4.77336e-44 -7.63098e-44 0)
(5.89662e-43 -1.00482e-42 0)
(7.02417e-42 -1.27433e-41 0)
(7.99745e-41 -1.56746e-40 0)
(8.70325e-40 -1.82843e-39 0)
(8.96281e-39 -2.03732e-38 0)
(8.74888e-38 -2.03727e-37 0)
(7.95157e-37 -1.71573e-36 0)
(6.73907e-36 -6.01435e-36 0)
(5.13873e-35 1.61829e-34 0)
(3.45741e-34 5.48045e-33 0)
(1.88558e-33 1.00442e-31 0)
(6.30757e-33 1.3456e-30 0)
(3.459e-33 -8.80263e-33 0)
(-3.3286e-34 -1.20238e-33 0)
(3.2428e-35 2.24716e-34 0)
(4.54273e-35 5.93342e-35 0)
(9.54436e-36 1.15136e-35 0)
(1.88936e-36 1.53519e-36 0)
(2.67531e-37 1.94603e-37 0)
(3.63665e-38 2.14022e-38 0)
(4.22428e-39 2.27673e-39 0)
(4.70647e-40 2.22499e-40 0)
(4.76406e-41 2.10143e-41 0)
(4.63005e-42 1.86682e-42 0)
(4.20612e-43 1.60103e-43 0)
(3.67522e-44 1.28625e-44 0)
(3.02275e-45 1.13275e-45 0)
(2.48646e-46 2.27332e-46 0)
(2.90092e-47 4.29967e-47 0)
(4.03337e-48 9.0316e-48 0)
(7.22482e-49 1.44015e-48 0)
(1.09962e-49 2.16468e-49 0)
(1.62378e-50 2.77329e-50 0)
(2.07073e-51 3.33391e-51 0)
(2.40303e-52 3.61716e-52 0)
(-1.15743e-52 3.45976e-53 0)
(-2.33728e-51 -1.67086e-53 0)
(-3.73049e-50 -8.28927e-53 0)
(-5.77329e-49 1.14553e-51 0)
(-8.69181e-48 4.2071e-50 0)
(-1.26779e-46 8.42299e-49 0)
(-1.79777e-45 1.40859e-47 0)
(-2.46092e-44 2.12437e-46 0)
(-3.27207e-43 2.99738e-45 0)
(-4.1762e-42 4.03815e-44 0)
(-5.17489e-41 5.1827e-43 0)
(-6.10205e-40 6.49841e-42 0)
(-6.99388e-39 7.87842e-41 0)
(-7.52023e-38 9.91058e-40 0)
(-7.90109e-37 1.33494e-38 0)
(-7.58663e-36 2.16279e-37 0)
(-7.21672e-35 3.93886e-36 0)
(-5.90973e-34 7.45578e-35 0)
(-4.92739e-33 1.26851e-33 0)
(-2.90327e-32 1.79998e-32 0)
(-1.85434e-31 1.88689e-31 0)
(3.73575e-34 -1.72059e-33 0)
(-1.23283e-34 -2.39097e-34 0)
(-1.59093e-35 1.3785e-35 0)
(1.63153e-36 6.67592e-36 0)
(6.98644e-37 1.59746e-36 0)
(1.77749e-37 2.36286e-37 0)
(2.80927e-38 3.25235e-38 0)
(4.08822e-39 3.78584e-39 0)
(4.97632e-40 4.21438e-40 0)
(5.73105e-41 4.26006e-41 0)
(5.95611e-42 4.13429e-42 0)
(5.90573e-43 3.751e-43 0)
(5.45658e-44 3.27477e-44 0)
(4.83397e-45 2.70002e-45 0)
(4.042e-46 2.23625e-46 0)
(3.30964e-47 2.6432e-47 0)
(3.18322e-48 3.698e-48 0)
(3.5656e-49 6.61076e-49 0)
(5.3149e-50 1.00352e-49 0)
(7.51695e-51 1.47739e-50 0)
(1.07249e-51 1.88059e-51 0)
(1.35275e-52 2.25554e-52 0)
(1.88336e-53 2.60719e-53 0)
(4.63281e-53 2.99326e-53 0)
(7.19425e-52 4.58473e-52 0)
(1.13181e-50 7.45603e-51 0)
(1.73163e-49 1.18234e-49 0)
(2.5784e-48 1.82227e-48 0)
(3.72012e-47 2.73413e-47 0)
(5.2125e-46 3.97613e-46 0)
(7.04601e-45 5.62152e-45 0)
(9.22991e-44 7.67294e-44 0)
(1.15936e-42 1.01682e-42 0)
(1.4085e-41 1.29349e-41 0)
(1.62598e-40 1.59636e-40 0)
(1.81339e-39 1.87533e-39 0)
(1.89358e-38 2.14023e-38 0)
(1.91213e-37 2.29685e-37 0)
(1.75986e-36 2.41546e-36 0)
(1.57484e-35 2.35157e-35 0)
(1.2093e-34 2.30381e-34 0)
(9.11444e-34 2.02218e-33 0)
(4.8494e-33 1.81367e-32 0)
(2.52397e-32 1.20862e-31 0)
(5.08809e-35 -1.81433e-34 0)
(-2.33562e-35 -2.88346e-35 0)
(-3.66265e-36 -4.32159e-38 0)
(-2.23447e-37 5.23261e-37 0)
(2.76155e-38 1.54974e-37 0)
(1.43035e-38 2.51522e-38 0)
(2.68758e-39 3.68055e-39 0)
(4.31779e-40 4.47967e-40 0)
(5.57277e-41 5.1509e-41 0)
(6.69571e-42 5.34487e-42 0)
(7.17463e-43 5.29196e-43 0)
(7.28524e-44 4.88362e-44 0)
(6.85743e-45 4.32243e-45 0)
(6.16743e-46 3.61692e-46 0)
(5.23167e-47 2.97008e-47 0)
(4.29831e-48 2.87904e-48 0)
(3.73629e-49 3.24759e-49 0)
(3.54515e-50 4.85005e-50 0)
(4.26772e-51 6.85349e-51 0)
(5.35798e-52 9.75642e-52 0)
(7.15349e-53 1.22701e-52 0)
(1.00282e-53 1.4728e-53 0)
(2.29342e-53 3.26991e-54 0)
(3.64667e-52 2.89049e-53 0)
(5.91336e-51 4.79143e-52 0)
(9.35476e-50 7.78485e-51 0)
(1.43899e-48 1.23376e-49 0)
(2.15539e-47 1.90137e-48 0)
(3.12958e-46 2.85389e-47 0)
(4.41755e-45 4.15288e-46 0)
(6.01975e-44 5.8767e-45 0)
(7.96253e-43 8.02953e-44 0)
(1.01089e-41 1.06548e-42 0)
(1.24449e-40 1.35746e-41 0)
(1.45774e-39 1.67913e-40 0)
(1.65651e-38 1.98002e-39 0)
(1.76595e-37 2.27853e-38 0)
(1.83363e-36 2.49395e-37 0)
(1.74061e-35 2.74773e-36 0)
(1.62769e-34 2.9679e-35 0)
(1.31213e-33 3.47232e-34 0)
(1.06522e-32 4.00356e-33 0)
(6.13853e-32 4.6178e-32 0)
(3.72394e-31 4.13686e-31 0)
(5.13591e-36 -2.39369e-35 0)
(-2.52246e-36 -3.91222e-36 0)
(-4.37061e-37 -2.61404e-37 0)
(-4.60361e-38 2.13805e-38 0)
(-9.18542e-40 1.28463e-38 0)
(9.12775e-40 2.43666e-39 0)
(2.14406e-40 3.91076e-40 0)
(3.80661e-41 5.03678e-41 0)
(5.19414e-42 6.03794e-42 0)
(6.48077e-43 6.45846e-43 0)
(7.13898e-44 6.54822e-44 0)
(7.4021e-45 6.15642e-45 0)
(7.08582e-46 5.53175e-46 0)
(6.45917e-47 4.69216e-47 0)
(5.54624e-48 3.85888e-48 0)
(4.58706e-49 3.36723e-49 0)
(3.83439e-50 3.21103e-50 0)
(3.34192e-51 3.8799e-51 0)
(3.44829e-52 4.87579e-52 0)
(3.84617e-53 6.49629e-53 0)
(4.8399e-54 7.93376e-54 0)
(2.57895e-54 8.69081e-55 0)
(3.45841e-53 -1.00698e-54 0)
(5.75039e-52 -1.886e-53 0)
(9.33654e-51 -3.14071e-52 0)
(1.4786e-49 -5.095e-51 0)
(2.277e-48 -8.06109e-50 0)
(3.4149e-47 -1.24015e-48 0)
(4.96486e-46 -1.85781e-47 0)
(7.0187e-45 -2.69791e-46 0)
(9.57928e-44 -3.8087e-45 0)
(1.26943e-42 -5.19025e-44 0)
(1.61468e-41 -6.86262e-43 0)
(1.99249e-40 -8.69647e-42 0)
(2.33946e-39 -1.06342e-40 0)
(2.66671e-38 -1.21766e-39 0)
(2.85157e-37 -1.28618e-38 0)
(2.97371e-36 -1.0609e-37 0)
(2.83436e-35 -2.37393e-37 0)
(2.66798e-34 1.95938e-35 0)
(2.16315e-33 6.34576e-34 0)
(1.77652e-32 1.35817e-32 0)
(1.03322e-31 2.19225e-31 0)
(6.44263e-31 2.69077e-30 0)
(5.57655e-37 -2.38219e-36 0)
(-2.75989e-37 -4.14989e-37 0)
(-4.95337e-38 -4.29637e-38 0)
(-6.95844e-39 -8.20491e-40 0)
(-4.81677e-40 8.41692e-40 0)
(3.07119e-41 1.96191e-40 0)
(1.43657e-41 3.46213e-41 0)
(3.04293e-42 4.70714e-42 0)
(4.49334e-43 5.85649e-43 0)
(5.89207e-44 6.43866e-44 0)
(6.71004e-45 6.66541e-45 0)
(7.13061e-46 6.3729e-46 0)
(6.95477e-47 5.80363e-47 0)
(6.43377e-48 4.98141e-48 0)
(5.59276e-49 4.12092e-49 0)
(4.66347e-50 3.45149e-50 0)
(3.82848e-51 3.0178e-51 0)
(3.17418e-52 3.12512e-52 0)
(2.91517e-53 3.49209e-53 0)
(2.88999e-54 4.28949e-54 0)
(3.23848e-55 4.91764e-55 0)
(9.46685e-56 -1.51002e-55 0)
(1.01453e-54 -3.64171e-54 0)
(1.68426e-53 -6.22197e-53 0)
(2.73592e-52 -1.03663e-51 0)
(4.33514e-51 -1.68344e-50 0)
(6.67976e-50 -2.66654e-49 0)
(1.00243e-48 -4.10727e-48 0)
(1.45839e-47 -6.16127e-47 0)
(2.06328e-46 -8.96005e-46 0)
(2.81828e-45 -1.26699e-44 0)
(3.73829e-44 -1.72963e-43 0)
(4.75968e-43 -2.29217e-42 0)
(5.88041e-42 -2.91364e-41 0)
(6.91283e-41 -3.58412e-40 0)
(7.89224e-40 -4.16157e-39 0)
(8.45242e-39 -4.57718e-38 0)
(8.83349e-38 -4.35892e-37 0)
(8.43666e-37 -3.04425e-36 0)
(7.96668e-36 9.19198e-36 0)
(6.47719e-35 8.80418e-34 0)
(5.34784e-34 2.21823e-32 0)
(3.12325e-33 3.77654e-31 0)
(1.9706e-32 4.82545e-30 0)
(5.13701e-38 -2.54374e-37 0)
(-2.52151e-38 -4.5383e-38 0)
(-4.71608e-39 -6.26096e-39 0)
(-7.6869e-40 -4.21147e-40 0)
(-6.97614e-41 3.03733e-41 0)
(-1.668e-42 1.32982e-41 0)
(7.43566e-43 2.77992e-42 0)
(2.10993e-43 4.08311e-43 0)
(3.43423e-44 5.3354e-44 0)
(4.75466e-45 6.0626e-45 0)
(5.60534e-46 6.43158e-46 0)
(6.10474e-47 6.26504e-47 0)
(6.06564e-48 5.78982e-48 0)
(5.69231e-49 5.03005e-49 0)
(5.00719e-50 4.19356e-50 0)
(4.21144e-51 3.44571e-51 0)
(3.4389e-52 2.86193e-52 0)
(2.78345e-53 2.63554e-53 0)
(2.3827e-54 2.61885e-54 0)
(2.09704e-55 2.90524e-55 0)
(-9.36425e-56 2.80199e-56 0)
(-2.01347e-54 -7.03775e-56 0)
(-3.43762e-53 -1.29016e-54 0)
(-5.72644e-52 -2.19948e-53 0)
(-9.29787e-51 -3.66132e-52 0)
(-1.4725e-49 -5.94039e-51 0)
(-2.26762e-48 -9.40001e-50 0)
(-3.40086e-47 -1.44634e-48 0)
(-4.94451e-46 -2.16703e-47 0)
(-6.99e-45 -3.14743e-46 0)
(-9.5402e-44 -4.44406e-45 0)
(-1.26426e-42 -6.05717e-44 0)
(-1.60813e-41 -8.01087e-43 0)
(-1.98442e-40 -1.01556e-41 0)
(-2.32999e-39 -1.24303e-40 0)
(-2.65595e-38 -1.42711e-39 0)
(-2.84007e-37 -1.52019e-38 0)
(-2.96177e-36 -1.2964e-37 0)
(-2.82299e-35 -4.41967e-37 0)
(-2.65737e-34 1.86887e-35 0)
(-2.15456e-33 6.47931e-34 0)
(-1.76968e-32 1.41091e-32 0)
(-1.0293e-31 2.29123e-31 0)
(-6.42126e-31 2.82516e-30 0)
(4.78784e-39 -2.32266e-38 0)
(-2.31681e-39 -4.30138e-39 0)
(-4.42396e-40 -6.91203e-40 0)
(-8.10748e-41 -6.17976e-41 0)
(-8.57568e-42 -1.2803e-42 0)
(-5.65381e-43 7.00675e-43 0)
(1.18558e-44 1.93709e-43 0)
(1.21647e-44 3.13056e-44 0)
(2.36569e-45 4.31688e-45 0)
(3.55223e-46 5.07725e-46 0)
(4.38377e-47 5.51999e-47 0)
(4.92263e-48 5.47779e-48 0)
(4.99854e-49 5.13554e-49 0)
(4.76809e-50 4.51456e-50 0)
(4.24833e-51 3.79581e-51 0)
(3.60764e-52 3.10044e-52 0)
(2.94678e-53 2.51086e-53 0)
(2.35735e-54 2.15397e-54 0)
(1.92739e-55 2.04708e-55 0)
(1.14891e-56 2.23349e-56 0)
(-7.71255e-56 7.61111e-57 0)
(-1.36988e-54 8.9459e-56 0)
(-2.33442e-53 1.55789e-54 0)
(-3.88508e-52 2.65876e-53 0)
(-6.30195e-51 4.43261e-52 0)
(-9.96953e-50 7.20347e-51 0)
(-1.53354e-48 1.14193e-49 0)
(-2.29697e-47 1.76042e-48 0)
(-3.33505e-46 2.64335e-47 0)
(-4.70738e-45 3.84812e-46 0)
(-6.41433e-44 5.4481e-45 0)
(-8.48384e-43 7.44772e-44 0)
(-1.07697e-41 9.88876e-43 0)
(-1.3257e-40 1.26068e-41 0)
(-1.55263e-39 1.56076e-40 0)
(-1.76404e-38 1.84242e-39 0)
(-1.88016e-37 2.12426e-38 0)
(-1.95172e-36 2.33337e-37 0)
(-1.85206e-35 2.59017e-36 0)
(-1.73127e-34 2.83778e-35 0)
(-1.39489e-33 3.38902e-34 0)
(-1.13197e-32 4.0018e-33 0)
(-6.51889e-32 4.6939e-32 0)
(-3.95579e-31 4.26477e-31 0)
(-5.85698e-35 2.65403e-30 0)
(3.00493e-40 -2.69039e-39 0)
(-1.44212e-40 -5.10605e-40 0)
(-2.80923e-41 -9.40966e-41 0)
(-5.43278e-42 -1.0095e-41 0)
(-6.12009e-43 -7.08856e-43 0)
(-4.93635e-44 4.02864e-45 0)
(-1.14635e-45 1.25394e-44 0)
(5.25606e-46 2.53965e-45 0)
(1.23e-46 3.87294e-46 0)
(1.97318e-47 4.81857e-47 0)
(2.51906e-48 5.43865e-48 0)
(2.89004e-49 5.54229e-49 0)
(2.97871e-50 5.30057e-50 0)
(2.87266e-51 4.73267e-51 0)
(2.58153e-52 4.02305e-52 0)
(2.20688e-53 3.27457e-53 0)
(1.81466e-54 2.42484e-54 0)
(1.65361e-55 2.08329e-55 0)
(1.43873e-56 1.93168e-55 0)
(-9.27714e-57 4.70313e-56 0)
(-1.90653e-56 1.52834e-56 0)
(-2.91065e-55 6.97987e-56 0)
(-4.93594e-54 1.18487e-54 0)
(-8.18973e-53 2.01905e-53 0)
(-1.32411e-51 3.36129e-52 0)
(-2.08696e-50 5.45426e-51 0)
(-3.19736e-49 8.63205e-50 0)
(-4.76699e-48 1.32841e-48 0)
(-6.8869e-47 1.99077e-47 0)
(-9.66404e-46 2.89215e-46 0)
(-1.30855e-44 4.08499e-45 0)
(-1.71767e-43 5.5705e-44 0)
(-2.16277e-42 7.37429e-43 0)
(-2.63545e-41 9.37087e-42 0)
(-3.05334e-40 1.15498e-40 0)
(-3.42064e-39 1.35502e-39 0)
(-3.59173e-38 1.54365e-38 0)
(-3.65222e-37 1.65347e-37 0)
(-3.39149e-36 1.73377e-36 0)
(-3.06836e-35 1.68193e-35 0)
(-2.39117e-34 1.63806e-34 0)
(-1.83111e-33 1.42723e-33 0)
(-9.97031e-33 1.26779e-32 0)
(-5.26277e-32 8.36693e-32 0)
(-7.81214e-36 4.93461e-31 0)
(-1.20864e-39 -6.77413e-39 0)
(5.77035e-40 -1.28289e-39 0)
(1.13252e-40 -2.34893e-40 0)
(2.25902e-41 -2.50372e-41 0)
(2.63618e-42 -1.72432e-42 0)
(2.35544e-43 1.67676e-44 0)
(1.01706e-44 3.21656e-44 0)
(-1.33805e-45 6.42799e-45 0)
(-4.02473e-46 9.74992e-46 0)
(-6.90322e-47 1.20925e-46 0)
(-9.08252e-48 1.36207e-47 0)
(-1.061e-48 1.38587e-48 0)
(-1.10655e-49 1.32392e-49 0)
(-1.07632e-50 1.18074e-50 0)
(-9.73445e-52 9.98465e-52 0)
(-8.35163e-53 7.89069e-53 0)
(-6.6824e-54 2.62534e-54 0)
(-1.22116e-55 4.21961e-55 0)
(1.35317e-56 3.40331e-54 0)
(-1.86146e-55 8.67211e-55 0)
(-5.18301e-56 2.17524e-55 0)
(-7.04236e-56 5.11768e-56 0)
(-9.89488e-55 2.60495e-55 0)
(-1.63745e-53 4.33091e-54 0)
(-2.6451e-52 7.18644e-53 0)
(-4.16384e-51 1.16221e-51 0)
(-6.36892e-50 1.83233e-50 0)
(-9.47531e-49 2.80821e-49 0)
(-1.36527e-47 4.18844e-48 0)
(-1.90941e-46 6.05375e-47 0)
(-2.57487e-45 8.49924e-46 0)
(-3.36277e-44 1.1515e-44 0)
(-4.2081e-43 1.51253e-43 0)
(-5.08874e-42 1.90598e-42 0)
(-5.84049e-41 2.32471e-41 0)
(-6.46709e-40 2.69654e-40 0)
(-6.69106e-39 3.0258e-39 0)
(-6.67946e-38 3.18539e-38 0)
(-6.05328e-37 3.25367e-37 0)
(-5.31515e-36 3.04903e-36 0)
(-3.97247e-35 2.80398e-35 0)
(-2.90669e-34 2.25519e-34 0)
(-1.47636e-33 1.79604e-33 0)
(-7.46302e-33 1.04151e-32 0)
(-8.95016e-37 5.50516e-32 0)
(-1.47839e-38 -7.20526e-38 0)
(7.14432e-39 -1.33844e-38 0)
(1.36814e-39 -2.19197e-39 0)
(2.53367e-40 -2.02466e-40 0)
(2.72e-41 -6.2551e-42 0)
(1.90056e-42 1.82683e-42 0)
(-1.27205e-44 5.51412e-43 0)