/*--------------------------------*- C++ -*----------------------------------*\
| =========                 |                                                 |
| \\      /  F ield         | OpenFOAM: The Open Source CFD Toolbox           |
|  \\    /   O peration     | Version:  2.4.0                                 |
|   \\  /    A nd           | Web:      www.OpenFOAM.org                      |
|    \\/     M anipulation  |                                                 |
\*---------------------------------------------------------------------------*/
FoamFile
{
    version     2.0;
    format      ascii;
    class       surfaceScalarField;
    location    "1";
    object      phi;
}
// * * * * * * * * * * * * * * * * * * * * * * * * * * * * * * * * * * * * * //

dimensions      [0 3 -1 0 0 0 0];

internalField   nonuniform List<scalar> 
15214
(
5.30598e-39
1.54822e-40
2.59201e-38
7.52352e-40
3.811e-38
4.12782e-39
6.15123e-37
2.87168e-39
1.42236e-40
-7.92715e-39
-6.14185e-37
-7.90344e-39
-3.1931e-38
3.04974e-39
5.51109e-39
5.0362e-39
5.96123e-38
5.65697e-39
6.58724e-37
7.33479e-39
6.47216e-37
-4.10321e-39
-5.44776e-37
-1.07987e-38
3.22342e-38
2.87157e-39
6.21406e-37
6.9985e-39
3.90448e-38
-3.05347e-39
2.60785e-38
-4.15585e-39
5.38626e-39
-7.54887e-40
7.94133e-40
-1.54528e-40
1.25163e-40
-2.42311e-41
1.71329e-41
-3.74719e-42
2.31973e-42
-5.12652e-43
2.89312e-43
-6.72943e-44
3.54132e-44
-8.16662e-45
8.01558e-45
-8.46022e-46
3.58009e-44
8.56954e-46
2.9285e-43
8.26012e-45
2.35062e-42
6.81391e-44
1.73863e-41
5.19856e-43
1.27185e-40
3.8061e-42
8.08876e-40
2.46746e-41
5.49371e-39
1.57746e-40
2.67428e-38
7.75236e-40
4.36025e-38
4.28512e-39
6.41847e-37
3.6463e-39
4.36025e-38
-3.6463e-39
2.67428e-38
-4.28512e-39
5.49371e-39
-7.75236e-40
8.08876e-40
-1.57746e-40
1.27184e-40
-2.46782e-41
1.7377e-41
-3.8308e-42
2.30525e-42
-6.75836e-43
1.26769e-43
-9.17502e-43
-4.68412e-43
-4.19204e-42
-3.37209e-43
-1.49444e-41
5.25191e-43
-4.63216e-41
-9.58564e-42
2.31174e-39
-1.94461e-40
1.05053e-38
-1.32894e-39
4.93518e-38
-6.69867e-39
7.49237e-38
-4.43658e-39
7.71766e-41
1.27491e-38
-7.44419e-38
1.27138e-38
-4.65833e-38
-4.71997e-39
2.43304e-39
-8.28302e-39
5.79911e-38
-9.4027e-39
1.26697e-37
-1.16709e-38
8.81942e-38
6.66251e-39
-1.22224e-38
1.71856e-38
1.33474e-38
-4.43644e-39
7.77474e-38
-1.11343e-38
4.98317e-38
4.72493e-39
1.05924e-38
6.73991e-39
2.3659e-39
1.33707e-39
4.03557e-40
2.48286e-40
6.7344e-41
3.59501e-41
9.87186e-42
4.97625e-42
1.38928e-42
6.2188e-43
1.80175e-43
7.49801e-44
2.26633e-44
8.49058e-45
5.25873e-45
8.3283e-46
2.29219e-44
-8.42562e-46
1.8249e-43
-8.57797e-45
1.40897e-42
-7.58119e-44
1.0029e-41
-6.29429e-43
6.85479e-41
-5.04254e-42
4.11994e-40
-3.64951e-41
2.42301e-39
-2.52623e-40
1.09258e-38
-1.36789e-39
5.17742e-38
-6.951e-39
8.58384e-38
-5.80371e-39
5.17742e-38
5.80371e-39
1.09258e-38
6.951e-39
2.42301e-39
1.36789e-39
4.11992e-40
2.5262e-40
6.85337e-41
3.64738e-41
9.95128e-42
4.89544e-42
1.0268e-42
-3.11862e-43
-1.22893e-42
-5.13071e-42
-4.30716e-42
-2.6086e-41
-2.96171e-42
-9.51376e-41
4.31383e-42
-2.99625e-40
-6.20887e-41
6.81402e-40
-9.42207e-41
2.53949e-39
-5.89388e-40
9.29185e-39
-2.42424e-39
1.3182e-38
-1.4337e-39
2.8489e-41
4.58451e-39
-1.30185e-38
4.56607e-39
-8.46176e-39
-1.5716e-39
7.2026e-40
-3.13577e-39
1.13047e-38
-3.62506e-39
2.31893e-38
-4.11717e-39
1.65488e-38
2.40474e-39
-4.94357e-40
6.01804e-39
3.39515e-39
-1.43347e-39
1.40318e-38
-3.85669e-39
9.45441e-39
1.57434e-39
2.57058e-39
2.44549e-39
6.95707e-40
5.9295e-40
1.34606e-40
1.19698e-40
2.46401e-41
1.88416e-41
3.8617e-42
2.75421e-42
5.71573e-43
3.62347e-43
7.70816e-44
4.54237e-44
1.00048e-44
5.32886e-45
2.37921e-45
5.36263e-46
1.01238e-44
-5.42853e-46
7.81259e-44
-5.38664e-45
5.80228e-43
-4.59592e-44
3.92863e-42
-3.67068e-43
2.51322e-41
-2.79417e-42
1.37876e-40
-1.91573e-41
7.16331e-40
-1.22079e-40
2.67939e-39
-6.08946e-40
1.00077e-38
-2.54561e-39
1.5857e-38
-2.04206e-39
1.00077e-38
2.04206e-39
2.67939e-39
2.54561e-39
7.16329e-40
6.08944e-40
1.37862e-40
1.22064e-40
2.50425e-41
1.90398e-41
3.43089e-42
1.97472e-42
-1.89821e-42
-4.95211e-42
-9.21016e-42
-2.9878e-41
-2.89253e-41
-1.52981e-40
-2.01078e-41
-5.7085e-40
2.81376e-41
-1.83328e-39
-3.80066e-40
1.46888e-40
-4.15214e-41
4.51994e-40
-1.97339e-40
1.34894e-39
-7.33926e-40
1.80635e-39
-4.11204e-40
7.53572e-42
1.38143e-39
-1.7661e-39
1.37482e-39
-1.16668e-39
-4.58819e-40
1.56091e-40
-9.65942e-40
1.69245e-39
-1.12394e-39
3.30984e-39
-1.23184e-39
2.43921e-39
7.23338e-40
1.83122e-40
1.79185e-39
6.40409e-40
-4.10159e-40
1.99348e-39
-1.14031e-39
1.38871e-39
4.59873e-40
4.59828e-40
7.38459e-40
1.49665e-40
1.93972e-40
3.25329e-41
4.18525e-41
6.45243e-42
6.96632e-42
1.07195e-42
1.06691e-42
1.65476e-43
1.45912e-43
2.30689e-44
1.88805e-44
3.07324e-45
2.27388e-45
7.4616e-46
2.33325e-46
3.11113e-45
-2.36296e-46
2.33956e-44
-2.29949e-45
1.68125e-43
-1.91135e-44
1.09189e-42
-1.4792e-43
6.5941e-42
-1.08346e-42
3.34333e-41
-7.09282e-42
1.54999e-40
-4.27689e-41
4.85576e-40
-1.99834e-40
1.50368e-39
-7.73052e-40
2.29064e-39
-6.09847e-40
1.50368e-39
6.09847e-40
4.85574e-40
7.73051e-40
1.54987e-40
1.99824e-40
3.33503e-41
4.26914e-41
6.05905e-42
6.49507e-42
-1.91737e-42
-3.14426e-42
-1.50547e-41
-2.77697e-41
-5.80554e-41
-1.6035e-40
-1.84203e-40
-8.40312e-40
-1.30211e-40
-3.22859e-39
1.7415e-40
-1.06068e-38
-2.20231e-39
2.70546e-41
-6.45388e-41
6.85217e-41
-7.80855e-41
1.51746e-40
-1.91051e-40
1.85461e-40
-9.67754e-41
1.83018e-42
3.1933e-40
-1.76426e-40
3.18655e-40
-1.158e-40
-1.03608e-40
2.98834e-41
-2.28546e-40
1.9918e-40
-2.67351e-40
3.65756e-40
-2.84239e-40
2.87679e-40
1.67568e-40
7.03374e-41
4.11546e-40
1.04297e-40
-9.07456e-41
2.21529e-40
-2.6018e-40
1.59679e-40
1.03862e-40
6.93826e-41
1.71728e-40
2.84158e-41
4.81635e-41
6.89182e-42
1.09532e-41
1.4736e-42
1.91042e-42
2.57486e-43
3.0385e-43
4.12602e-44
4.29057e-44
5.91884e-45
5.69564e-45
8.06765e-46
7.00815e-46
1.99417e-46
7.3046e-47
8.17022e-46
-7.40033e-47
6.00595e-45
-7.08957e-46
4.19533e-44
-5.76858e-45
2.62585e-43
-4.35232e-44
1.50875e-42
-3.08826e-43
7.10645e-42
-1.94747e-42
2.962e-41
-1.12127e-41
7.47178e-41
-4.97587e-41
1.80685e-40
-1.80684e-40
2.59526e-40
-1.40462e-40
1.80684e-40
1.40461e-40
7.47093e-41
1.8068e-40
2.95548e-41
4.97154e-41
6.64751e-42
1.08559e-41
-1.49126e-42
-8.41814e-43
-1.68871e-41
-1.97552e-41
-8.83955e-41
-1.3533e-40
-3.44874e-40
-7.98725e-40
-1.11807e-39
-4.32212e-39
-8.0584e-40
-1.72524e-38
1.02309e-39
-5.83775e-38
-1.21203e-38
-8.40516e-43
-3.20467e-40
1.52575e-41
-1.7985e-40
1.63406e-41
-1.56722e-40
1.40454e-41
-5.17022e-41
9.70424e-43
5.93135e-41
-9.99878e-42
6.53553e-41
-6.01983e-42
-2.15912e-41
5.21439e-42
-4.85623e-41
1.81151e-41
-5.69478e-41
2.92224e-41
-5.93958e-41
2.70075e-41
3.50326e-41
1.60056e-41
8.56685e-41
1.55426e-41
-1.83935e-41
1.82599e-41
-5.38693e-41
1.39204e-41
2.14158e-41
9.40341e-42
3.60243e-41
4.91327e-42
1.0546e-41
1.30977e-42
2.50651e-42
2.97823e-43
4.5406e-43
5.42431e-44
7.45924e-44
8.96349e-45
1.08192e-44
1.31709e-45
1.468e-45
1.83042e-46
1.8393e-46
4.59463e-47
1.94288e-47
1.85431e-46
-1.96897e-47
1.33712e-45
-1.86124e-46
9.12031e-45
-1.4874e-45
5.53741e-44
-1.0981e-44
3.05424e-43
-7.58713e-44
1.35469e-42
-4.63368e-43
5.15421e-42
-2.56991e-42
1.03973e-41
-1.09225e-41
1.74146e-41
-3.8055e-41
2.2149e-41
-2.93054e-41
1.74095e-41
2.93031e-41
1.03549e-41
3.80353e-41
4.82549e-42
1.07483e-41
-9.90574e-43
1.11414e-42
-1.52785e-41
-1.11054e-41
-9.07816e-41
-8.48724e-41
-4.79295e-40
-5.88821e-40
-1.9194e-39
-3.59798e-39
-6.38427e-39
-2.0305e-38
-4.70274e-39
-8.52595e-38
5.61778e-39
-2.98462e-37
-6.21487e-38
-2.28069e-41
-1.69602e-39
4.44743e-41
-8.89572e-40
2.61291e-41
-6.50169e-40
1.30649e-41
-1.76399e-40
3.70856e-42
-2.76257e-41
1.5625e-42
5.30802e-42
8.32829e-43
-5.18176e-42
8.97148e-43
-9.43794e-42
1.03722e-42
-1.09188e-41
8.20479e-43
-1.11876e-41
1.78712e-42
6.59576e-42
3.05009e-42
1.60757e-41
2.26353e-42
-3.37052e-42
6.78934e-43
-1.00594e-41
6.72115e-43
3.98763e-42
1.2313e-42
6.80443e-42
8.14811e-43
2.06382e-42
2.33799e-43
5.08753e-43
5.5774e-44
9.51434e-44
1.0495e-44
1.60586e-44
1.77806e-45
2.38263e-45
2.66481e-46
3.29336e-46
3.76419e-47
4.19085e-47
9.57235e-48
4.47789e-48
3.81444e-47
-4.53933e-48
2.70647e-46
-4.24198e-47
1.81023e-45
-3.33806e-46
1.07232e-44
-2.41942e-45
5.72761e-44
-1.63448e-44
2.42441e-43
-9.71866e-44
8.59551e-43
-5.22345e-43
1.40572e-42
-2.14225e-42
1.2317e-42
-7.21332e-42
9.80309e-43
-5.51113e-42
1.2087e-42
5.50308e-42
1.21248e-42
7.14487e-42
-6.59254e-43
1.52848e-42
-1.07695e-41
-4.68657e-42
-7.45823e-41
-4.21517e-41
-4.45455e-40
-3.18581e-40
-2.41811e-39
-2.29094e-39
-1.00038e-38
-1.46946e-38
-3.44024e-38
-8.80181e-38
-2.59639e-38
-3.96154e-37
2.89844e-38
-1.45866e-36
-3.02024e-37
-2.54209e-41
-8.53775e-39
3.13299e-40
-4.28123e-39
1.60614e-40
-3.11971e-39
7.7156e-41
-8.16996e-40
2.01671e-41
-1.82208e-40
4.92472e-42
-3.02561e-41
1.11132e-42
-5.9493e-42
2.78707e-43
-2.40615e-42
-1.27806e-44
-2.04862e-42
-2.64547e-43
-1.98778e-42
1.90043e-44
1.16227e-42
5.2064e-43
2.83013e-42
3.28385e-43
-5.82143e-43
-1.21843e-43
-1.76371e-42
-5.5754e-44
6.98312e-43
1.62025e-43
1.20391e-42
1.29966e-43
3.75187e-43
3.93431e-44
9.53082e-44
9.72663e-45
1.82926e-44
1.87764e-45
3.15761e-45
3.24563e-46
4.77411e-46
4.94464e-47
6.70275e-47
7.081e-48
8.642e-48
1.82082e-48
9.32455e-49
7.17736e-48
-9.45487e-49
5.02375e-47
-8.74951e-48
3.30601e-46
-6.79585e-47
1.91988e-45
-4.84987e-46
9.99984e-45
-3.21575e-45
4.08811e-44
-1.8701e-44
1.37704e-43
-9.79727e-44
1.90873e-43
-3.90205e-43
2.99687e-44
-1.28016e-42
-1.198e-43
-9.73833e-43
-6.1442e-44
9.52078e-43
-5.86562e-43
1.09291e-42
-6.06794e-42
-1.31313e-42
-4.57981e-41
-1.46252e-41
-3.17925e-40
-1.22489e-40
-1.951e-39
-9.58075e-40
-1.09478e-38
-7.26255e-39
-4.70799e-38
-5.0119e-38
-1.68304e-37
-3.26916e-37
-1.30341e-37
-1.62446e-36
1.34284e-37
-6.30693e-36
-1.31382e-36
8.43167e-40
-3.93822e-38
2.28788e-39
-1.9245e-38
9.94334e-40
-1.41645e-38
4.26602e-40
-3.55597e-39
1.05201e-40
-7.73096e-40
2.30759e-41
-1.31196e-40
4.14468e-42
-2.07973e-41
6.87672e-43
-3.17469e-42
7.42564e-44
-7.09627e-43
-6.26942e-44
-3.74672e-43
-1.85679e-44
1.87286e-43
8.32643e-44
4.67481e-43
4.78603e-44
-9.47166e-44
-3.85868e-44
-2.90633e-43
-2.2821e-44
1.14968e-43
2.19165e-44
1.99962e-43
2.01057e-44
6.37515e-44
6.31554e-45
1.65964e-44
1.60305e-45
3.25433e-45
3.15687e-46
5.72231e-46
5.54601e-47
8.78884e-47
8.56433e-48
1.25017e-47
1.24068e-48
1.62989e-48
3.22053e-49
1.77328e-49
1.25782e-48
-1.79847e-49
8.70389e-48
-1.65052e-48
5.65138e-47
-1.26789e-47
3.2296e-46
-8.9317e-47
1.64931e-45
-5.83078e-46
6.56974e-45
-3.32961e-45
2.1338e-44
-1.70808e-44
2.61306e-44
-6.64456e-44
-1.34702e-44
-2.13527e-43
-7.57793e-44
-1.65102e-43
-3.32152e-43
1.19642e-43
-2.72493e-42
-1.8358e-43
-2.23523e-41
-3.61338e-42
-1.68974e-40
-3.25927e-41
-1.20524e-39
-2.82142e-40
-7.64507e-39
-2.34065e-39
-4.4714e-38
-1.94062e-38
-2.01509e-37
-1.50676e-37
-7.63591e-37
-1.12158e-36
-6.0706e-37
-6.40038e-36
5.77487e-37
-2.76658e-35
-5.52561e-36
1.19019e-38
-1.72514e-37
1.62577e-38
-7.39977e-38
5.88001e-39
-5.28516e-38
2.16366e-39
-1.26461e-38
4.96718e-40
-2.634e-39
1.03436e-40
-4.32335e-40
1.77798e-41
-6.60406e-41
2.82754e-42
-9.08553e-42
3.98174e-43
-1.23105e-42
4.00937e-44
-1.99443e-43
1.97264e-45
1.7267e-44
1.33279e-44
7.99418e-44
6.98882e-45
-1.64947e-44
-7.19895e-45
-5.06234e-44
-4.47117e-45
2.00072e-44
3.01365e-45
3.50386e-44
2.99921e-45
1.13694e-44
9.66925e-46
3.01611e-45
2.50363e-46
6.01299e-46
5.01028e-47
1.07259e-46
8.9207e-48
1.6678e-47
1.39346e-48
2.39698e-48
2.03871e-49
3.15281e-49
5.33532e-50
3.45298e-50
2.0669e-49
-3.50267e-50
1.41608e-48
-3.19325e-49
9.08776e-48
-2.4315e-48
5.12159e-47
-1.69543e-47
2.57006e-46
-1.09338e-46
9.98521e-46
-6.15593e-46
3.0985e-45
-3.10713e-45
2.70093e-45
-1.18709e-44
-1.25907e-44
-3.75553e-44
-1.03356e-43
-2.95937e-44
-8.77476e-43
1.30592e-44
-7.5888e-42
-1.15389e-43
-6.30254e-41
-1.53292e-42
-4.88009e-40
-1.57847e-41
-3.5893e-39
-1.72422e-40
-2.36276e-38
-1.98528e-39
-1.44565e-37
-2.37648e-38
-6.87327e-37
-2.64489e-37
-2.7755e-36
-2.56602e-36
-2.25518e-36
-1.86657e-35
1.89082e-36
-8.67317e-35
-1.7876e-35
-4.21877e-39
-1.23747e-40
-2.14608e-38
-6.32048e-40
-3.23207e-38
-3.81099e-39
-5.64413e-37
-2.74763e-39
1.00527e-44
7.33289e-39
5.64413e-37
7.33289e-39
3.23214e-38
-2.7476e-39
2.14698e-38
-3.81074e-39
4.25602e-39
-6.30891e-40
5.81625e-40
-1.22804e-40
8.68325e-41
-1.7872e-41
9.6979e-42
-2.6491e-42
-9.70016e-42
-6.66418e-43
-8.68517e-41
-2.64962e-42
-5.81793e-40
-1.78767e-41
-4.25746e-39
-1.22846e-40
-2.14811e-38
-6.31229e-40
-3.24099e-38
-3.81339e-39
-5.65006e-37
-2.76581e-39
-4.34446e-39
7.20744e-39
5.4235e-37
6.6838e-39
-4.34446e-39
-6.6838e-39
-5.65006e-37
-7.20744e-39
-3.24099e-38
2.76581e-39
-2.14811e-38
3.81339e-39
-4.25763e-39
6.31224e-40
-5.83251e-40
1.22804e-40
-9.8287e-41
1.75346e-41
-9.93938e-41
-3.64323e-44
-5.92913e-40
-1.78303e-41
-4.33334e-39
-1.25074e-40
-2.19743e-38
-6.46442e-40
-3.6073e-38
-3.91799e-39
-5.82131e-37
-3.27124e-39
-1.46033e-38
4.04579e-39
1.46017e-38
7.87235e-39
5.82121e-37
4.04547e-39
3.59818e-38
-3.27411e-39
2.15129e-38
-3.93442e-39
-6.89025e-40
-1.83844e-39
1.55645e-40
-8.75539e-39
1.11777e-39
-4.48363e-38
6.19401e-39
-6.96156e-38
4.27575e-39
7.33235e-45
-1.18148e-38
6.96157e-38
-1.18148e-38
4.48369e-38
4.27573e-39
8.76095e-39
6.19392e-39
1.86577e-39
1.1196e-39
2.95943e-40
1.9544e-40
4.66265e-41
2.62348e-41
5.55533e-42
3.46221e-42
-5.55681e-42
7.9858e-43
-4.66388e-41
3.46271e-42
-2.96048e-40
2.62397e-41
-1.86663e-39
1.95486e-40
-8.76746e-39
1.12e-39
-4.48844e-38
6.19739e-39
-6.99181e-38
4.30237e-39
-1.91336e-39
-1.16159e-38
6.05522e-38
-1.06686e-38
-1.91336e-39
1.06686e-38
-6.99181e-38
1.16159e-38
-4.48844e-38
-4.30237e-39
-8.76748e-39
-6.19739e-39
-1.86673e-39
-1.11999e-39
-2.96921e-40
-1.95439e-40
-5.32404e-41
-2.58312e-41
-5.38948e-41
4.04701e-44
-3.02454e-40
2.61889e-41
-1.90695e-39
1.98453e-40
-9.01584e-39
1.14276e-39
-4.64478e-38
6.36619e-39
-7.67657e-38
5.22306e-39
-3.76869e-38
-6.56819e-39
3.76859e-38
-1.27856e-38
7.67593e-38
-6.5679e-39
4.63966e-38
5.22445e-39
8.74951e-39
6.35438e-39
8.31441e-40
-5.46468e-40
7.45247e-41
-2.13033e-39
4.97822e-40
-8.49144e-39
2.25765e-39
-1.23891e-38
1.4125e-39
1.89054e-45
-4.27912e-39
1.23892e-38
-4.27912e-39
8.49156e-39
1.41249e-39
2.13168e-39
2.25759e-39
5.52413e-40
4.98697e-40
9.93089e-41
9.43968e-41
1.71475e-41
1.3785e-41
2.16588e-42
1.92128e-42
-2.16656e-42
4.66075e-43
-1.7153e-41
1.9216e-42
-9.93538e-41
1.3788e-41
-5.5277e-40
9.44247e-41
-2.13424e-39
4.98933e-40
-8.50911e-39
2.25952e-39
-1.2491e-38
1.42651e-39
-5.69962e-40
-4.1828e-39
1.01556e-38
-3.7664e-39
-5.69962e-40
3.7664e-39
-1.2491e-38
4.1828e-39
-8.50911e-39
-1.42651e-39
-2.13425e-39
-2.25952e-39
-5.52815e-40
-4.9893e-40
-9.97151e-41
-9.43966e-41
-1.97539e-41
-1.35492e-41
-2.00211e-41
2.44317e-44
-1.01871e-40
1.37571e-41
-5.67444e-40
9.60545e-41
-2.21601e-39
5.10791e-40
-8.95965e-39
2.33989e-39
-1.40528e-38
1.82889e-39
-6.828e-39
-2.43792e-39
6.82773e-39
-4.7078e-39
1.40512e-38
-2.43776e-39
8.94814e-39
1.82964e-39
2.15505e-39
2.33472e-39
3.69416e-40
-1.18977e-40
2.58981e-41
-3.8174e-40
1.63083e-40
-1.24159e-39
6.82949e-40
-1.71838e-39
4.08729e-40
2.76947e-46
-1.29422e-39
1.71838e-39
-1.29422e-39
1.2416e-39
4.08726e-40
3.81928e-40
6.82944e-40
1.1969e-40
1.63485e-40
2.41457e-41
3.31095e-41
4.5107e-42
5.11375e-42
5.9943e-43
7.47483e-43
-5.99642e-43
1.88247e-43
-4.51236e-42
7.47623e-43
-2.41592e-41
5.11506e-42
-1.19794e-40
3.31211e-41
-3.82643e-40
1.63581e-40
-1.24623e-39
6.83692e-40
-1.74325e-39
4.13934e-40
-1.24318e-40
-1.26036e-39
1.31159e-39
-1.12553e-39
-1.24318e-40
1.12553e-39
-1.74325e-39
1.26036e-39
-1.24623e-39
-4.13934e-40
-3.82644e-40
-6.83692e-40
-1.19808e-40
-1.6358e-40
-2.42643e-41
-3.31094e-41
-5.23889e-42
-5.01848e-42
-5.31569e-42
1.01474e-44
-2.48606e-41
5.10215e-42
-1.23617e-40
3.37501e-41
-4.02164e-40
1.67944e-40
-1.34106e-39
7.11593e-40
-2.00086e-39
5.43563e-40
-9.59132e-40
-7.46112e-40
9.59088e-40
-1.4336e-39
2.00065e-39
-7.46071e-40
1.33961e-39
5.437e-40
3.93374e-40
7.09202e-40
1.19795e-40
-2.29765e-41
6.71037e-42
-5.7673e-41
4.05225e-41
-1.41126e-40
1.59036e-40
-1.80383e-40
9.13948e-41
-7.23836e-48
-3.01438e-40
1.80383e-40
-3.01438e-40
1.41123e-40
9.13952e-41
5.76718e-41
1.59041e-40
2.29147e-41
4.0667e-41
5.14549e-42
8.68687e-42
1.0349e-42
1.40623e-42
1.43611e-43
2.13606e-43
-1.43668e-43
5.54813e-44
-1.03534e-42
2.13651e-43
-5.14896e-42
1.40664e-42
-2.29407e-41
8.69038e-42
-5.78444e-41
4.06951e-41
-1.42187e-40
1.59255e-40
-1.85701e-40
9.28291e-41
-2.3979e-41
-2.92538e-40
1.17392e-40
-2.59337e-40
-2.39791e-41
2.59337e-40
-1.85701e-40
2.92538e-40
-1.42187e-40
-9.28291e-41
-5.78449e-41
-1.59255e-40
-2.29442e-41
-4.06947e-41
-5.17528e-42
-8.68683e-42
-1.21091e-42
-1.37814e-42
-1.22994e-42
3.05817e-45
-5.31807e-42
1.40273e-42
-2.38099e-41
8.86887e-42
-6.19265e-41
4.18869e-41
-1.59783e-40
1.66508e-40
-2.19394e-40
1.24596e-40
-1.02112e-40
-1.75597e-40
1.02109e-40
-3.35882e-40
2.19397e-40
-1.7559e-40
1.59821e-40
1.24596e-40
6.15276e-41
1.65713e-40
2.93628e-41
-4.03998e-42
1.45926e-42
-7.82183e-42
8.7862e-42
-1.19038e-41
3.33688e-41
-1.24664e-41
1.86651e-41
1.84217e-47
-6.33605e-41
1.24664e-41
-6.33601e-41
1.1903e-41
1.86683e-41
7.81523e-42
3.33889e-41
3.99188e-42
8.91556e-42
9.82665e-43
1.99263e-42
2.09917e-43
3.35074e-43
3.01802e-44
5.26096e-44
-3.01933e-44
1.40211e-44
-2.10017e-43
5.26214e-44
-9.83439e-43
3.3518e-43
-3.99753e-42
1.99354e-42
-7.85173e-42
8.92267e-42
-1.21193e-41
3.34415e-41
-1.34857e-41
1.90104e-41
-4.20822e-42
-6.13149e-41
3.63193e-42
-5.41025e-41
-4.20822e-42
5.41025e-41
-1.34857e-41
6.13149e-41
-1.21193e-41
-1.90104e-41
-7.85183e-42
-3.34415e-41
-3.99831e-42
-8.92257e-42
-9.89177e-43
-1.99262e-42
-2.47188e-43
-3.2797e-43
-2.51301e-43
7.8776e-46
-1.01917e-42
3.34167e-43
-4.17248e-42
2.03723e-42
-8.61826e-42
9.20491e-42
-1.5092e-41
3.5092e-41
-1.70927e-41
2.58807e-41
-7.2767e-42
-3.71836e-41
7.27745e-42
-7.08681e-41
1.71023e-41
-3.71833e-41
1.51588e-41
2.58714e-41
8.78249e-42
3.48672e-41
6.33999e-42
-6.32621e-43
7.21421e-44
-1.00848e-42
1.11888e-42
-4.67881e-43
6.19451e-42
1.36964e-43
3.42669e-42
2.4743e-46
-1.1992e-41
-1.35467e-43
-1.19901e-41
4.75426e-43
3.44455e-42
1.02214e-42
6.3102e-42
6.65958e-43
1.74655e-42
1.76045e-43
4.05256e-43
3.94199e-44
7.036e-44
5.82639e-45
1.13571e-44
-5.82913e-45
3.09337e-45
-3.94404e-44
1.13598e-44
-1.76202e-43
7.03842e-44
-6.67082e-43
4.05459e-43
-1.02923e-42
1.74812e-42
-5.16121e-43
6.32156e-42
-4.76517e-44
3.51648e-42
-7.06659e-43
-1.15732e-41
-1.34079e-42
-1.01714e-41
-7.06659e-43
1.01714e-41
-4.7652e-44
1.15732e-41
-5.16123e-43
-3.51648e-42
-1.02925e-42
-6.32156e-42
-6.67241e-43
-1.7481e-42
-1.77343e-43
-4.05253e-43
-4.66617e-44
-6.87922e-44
-4.74739e-44
1.7662e-46
-1.83132e-43
7.01563e-44
-6.99727e-43
4.14841e-43
-1.16461e-42
1.80708e-42
-9.98932e-43
6.65491e-42
-3.63129e-43
4.84642e-42
2.32409e-44
-7.08149e-42
-2.28559e-44
-1.34536e-41
3.66395e-43
-7.08169e-42
1.02022e-42
4.84268e-42
1.23013e-42
6.60119e-42
1.22419e-42
6.67112e-43
-4.3212e-42
6.05641e-44
-3.35152e-42
1.37202e-43
4.94744e-43
2.49066e-43
5.1264e-43
1.60292e-45
-2.13479e-42
-2.38309e-43
-2.12607e-42
-7.40493e-44
5.98169e-43
1.34225e-43
1.11684e-42
1.06654e-43
3.17762e-43
2.96976e-44
7.60471e-44
6.8879e-45
1.35517e-44
1.04031e-45
2.23837e-45
-1.04083e-45
6.20785e-46
-6.89176e-45
2.23894e-45
-2.97268e-44
1.35567e-44
-1.06859e-43
7.60887e-44
-1.35493e-43
3.18078e-43
6.69507e-44
1.11909e-42
2.07538e-43
6.12134e-43
-1.13776e-43
-2.04675e-42
-4.03706e-43
-1.79341e-42
-1.13776e-43
1.79341e-42
2.07538e-43
2.04675e-42
6.69503e-44
-6.12133e-43
-1.35497e-43
-1.11909e-42
-1.06888e-43
-3.18073e-43
-2.99357e-44
-7.60467e-44
-8.1879e-45
-1.32369e-44
-8.33556e-45
3.59279e-47
-3.09689e-44
1.35101e-44
-1.12533e-43
7.79292e-44
-1.58077e-43
3.29381e-43
-8.73071e-45
1.18127e-42
1.87093e-43
8.51611e-43
1.25502e-43
-1.26152e-42
-1.25397e-43
-2.39028e-42
-1.86316e-43
-1.26161e-42
1.35697e-44
8.50579e-43
1.73753e-43
1.16982e-42
2.19779e-43
1.11599e-41
1.52024e-41
1.88929e-42
-1.84026e-41
4.98803e-43
-2.78387e-42
1.2457e-43
-2.55832e-43
9.42078e-45
-3.90781e-43
-5.45264e-44
-3.57157e-43
-2.44811e-44
9.74174e-44
1.81223e-44
1.85519e-43
1.65412e-44
5.40279e-44
4.77501e-45
1.32602e-44
1.13676e-45
2.41436e-45
1.74597e-46
4.06418e-46
-1.74688e-46
1.14426e-46
-1.13743e-45
4.06528e-46
-4.77996e-45
2.41533e-45
-1.65751e-44
1.32681e-44
-1.83241e-44
5.40887e-44
2.3426e-44
1.85956e-43
5.06397e-44
1.00234e-43
-1.77169e-44
-3.39815e-43
-7.87291e-44
-2.96979e-43
-1.77169e-44
2.96979e-43
5.06397e-44
3.39815e-43
2.34259e-44
-1.00234e-43
-1.83248e-44
-1.85956e-43
-1.65803e-44
-5.40878e-44
-4.81574e-45
-1.32603e-44
-1.35591e-45
-2.35635e-45
-1.38106e-45
6.69767e-48
-4.98908e-45
2.40663e-45
-1.75077e-44
1.3601e-44
-2.19234e-44
5.60947e-44
1.18756e-44
1.96745e-43
5.0247e-44
1.40598e-43
2.99879e-44
-2.10767e-43
-2.99652e-44
-3.98435e-43
-5.00913e-44
-2.1079e-43
-1.09394e-44
1.40366e-43
2.50108e-44
1.94538e-43
3.69348e-44
1.38658e-40
-2.3573e-40
2.03372e-41
-2.92499e-41
3.158e-42
-3.26556e-42
3.93457e-43
-3.27436e-43
4.52442e-44
-9.69484e-44
-4.84151e-45
-6.53997e-44
-4.17238e-45
1.65896e-44
2.53241e-45
3.24897e-44
2.47523e-45
9.63836e-45
7.32237e-46
2.41215e-45
1.77742e-46
4.4658e-46
2.76693e-47
7.62912e-47
-2.76815e-47
2.17349e-47
-1.77819e-46
7.63136e-47
-7.32659e-46
4.46781e-46
-2.47638e-45
2.41386e-45
-2.51803e-45
9.65195e-45
4.48702e-45
3.25948e-44
8.92854e-45
1.73657e-44
-2.65491e-45
-5.95251e-44
-1.29445e-44
-5.19154e-44
-2.65491e-45
5.19154e-44
8.92853e-45
5.95251e-44
4.48701e-45
-1.73657e-44
-2.51814e-45
-3.25948e-44
-2.47721e-45
-9.65176e-45
-7.38422e-46
-2.41235e-45
-2.12568e-46
-4.35572e-46
-2.166e-46
1.28358e-48
-7.65883e-46
4.4511e-46
-2.62167e-45
2.47615e-45
-3.0659e-45
1.00219e-44
2.78228e-45
3.45497e-44
9.09951e-45
2.45179e-44
5.26673e-45
-3.7105e-44
-5.26245e-45
-7.00149e-44
-9.07175e-45
-3.71105e-44
-2.62064e-45
2.44677e-44
3.6001e-45
3.41168e-44
6.52747e-45
1.87081e-37
-9.74678e-37
1.84636e-37
-4.18074e-37
5.67568e-38
-2.98807e-37
1.78793e-38
-6.2712e-38
3.75019e-39
-1.23069e-38
7.34941e-40
-1.9109e-39
1.20865e-40
-2.81878e-40
1.86178e-41
-3.74204e-41
2.58985e-42
-4.75822e-42
3.38322e-43
-5.69814e-43
4.08843e-44
-6.12288e-44
6.8018e-45
5.8789e-46
1.57451e-45
-2.21233e-45
-1.16736e-45
-4.73388e-45
-7.69797e-46
1.83875e-45
4.38688e-46
3.24812e-45
4.59307e-46
1.07344e-45
1.50816e-46
2.91814e-46
3.96177e-47
5.93858e-47
8.02412e-48
1.08026e-47
1.44305e-48
1.70816e-48
2.2737e-49
2.49207e-49
3.3512e-50
3.32079e-50
8.81401e-51
3.67447e-51
3.38498e-50
-3.72521e-51
2.29462e-49
-3.36035e-50
1.45041e-48
-2.52379e-49
7.96756e-48
-1.73099e-48
3.79488e-47
-1.09431e-47
1.25259e-46
-5.99611e-47
1.43787e-46
-2.90852e-46
-3.06811e-45
-1.01115e-45
-3.69156e-44
-2.29634e-45
-3.53608e-43
9.56696e-45
-3.28379e-42
1.23367e-43
-2.91012e-41
1.14264e-42
-2.48044e-40
1.01273e-41
-1.97868e-39
8.05877e-41
-1.51424e-38
5.18668e-40
-1.042e-37
1.24583e-39
-6.81801e-37
-3.29855e-38
-3.48297e-36
-7.79764e-37
-1.64419e-35
-1.04065e-35
-1.34527e-35
-1.01245e-34
1.36365e-35
-6.07407e-35
-1.01436e-34
1.5814e-35
2.34252e-36
-1.34946e-36
1.8697e-36
-1.20078e-36
4.46558e-37
-3.44804e-37
1.10562e-37
-5.92524e-38
2.03549e-38
-1.0448e-38
3.61994e-39
-1.5472e-39
5.58627e-40
-2.23362e-40
8.20743e-41
-2.93249e-41
1.10344e-41
-3.70556e-42
1.41273e-42
-4.38932e-43
1.69575e-43
-4.9555e-44
1.96436e-44
-4.66413e-45
2.21317e-45
-7.01593e-46
1.15467e-46
-5.01458e-46
-4.62589e-47
1.70876e-46
3.84922e-47
3.11443e-46
3.92381e-47
1.04281e-46
1.30415e-47
2.8658e-47
3.47743e-48
5.89049e-48
7.13816e-49
1.08003e-48
1.29977e-49
1.71979e-49
2.07046e-50
2.52287e-50
3.08286e-51
3.37779e-51
8.25187e-52
3.75137e-52
3.21181e-51
-3.78298e-52
2.21137e-50
-3.39328e-51
1.45317e-49
-2.52326e-50
8.80511e-49
-1.70313e-49
5.28191e-48
-1.04587e-48
3.22938e-47
-5.37809e-48
2.40954e-46
-2.20309e-47
2.09217e-45
-2.56697e-47
2.02335e-44
5.60265e-46
1.92472e-43
8.99561e-45
1.7568e-42
9.23198e-44
1.52301e-41
8.73503e-43
1.26204e-40
7.83264e-42
9.78643e-40
6.35207e-41
7.20083e-39
4.30624e-40
4.77685e-38
1.4926e-39
2.94328e-37
-1.76565e-38
1.43723e-36
-5.08259e-37
6.01698e-36
-7.16962e-36
6.34098e-36
-7.32616e-35
-1.47618e-36
-2.51063e-33
-7.3514e-35
-3.71921e-36
4.05428e-35
-2.01626e-35
3.06498e-36
-1.50831e-36
2.36386e-36
3.98997e-38
5.45467e-37
3.31829e-38
9.13399e-38
8.80233e-39
1.55996e-38
1.48248e-39
2.30617e-39
2.25216e-40
3.30246e-40
3.00731e-41
4.33221e-41
3.81665e-42
5.45122e-42
4.51582e-43
6.44078e-43
5.13059e-44
7.30431e-44
5.5956e-45
7.88642e-45
5.62589e-46
8.08758e-46
1.83637e-47
7.54758e-47
2.09059e-47
1.09447e-47
2.78791e-47
4.10711e-48
9.31083e-48
1.20445e-48
2.58289e-48
3.12426e-49
5.36547e-49
6.39743e-50
9.9372e-50
1.16819e-50
1.59674e-50
1.86937e-51
2.36106e-51
2.81855e-52
3.18325e-52
1.05084e-52
3.53392e-53
6.7436e-52
-3.86375e-53
6.76944e-51
-3.56357e-52
7.095e-50
-2.82859e-51
7.61102e-49
-2.16274e-50
8.28123e-48
-1.66687e-49
8.94737e-47
-1.31932e-48
9.51385e-46
-1.14697e-47
9.8195e-45
-1.07317e-46
9.81497e-44
-1.07717e-45
9.41586e-43
-1.08561e-44
8.6925e-42
-1.07858e-43
7.6339e-41
-1.02051e-42
6.43001e-40
-9.07305e-42
5.0751e-39
-7.14897e-41
3.82625e-38
-4.38313e-40
2.60498e-37
-4.76812e-40
1.67405e-36
4.14247e-38
8.53798e-36
8.79809e-37
3.95342e-35
1.15659e-35
3.40843e-35
1.13154e-34
1.48368e-35
2.84121e-33
1.13339e-34
-3.27904e-35
2.53241e-36
-1.02049e-36
1.61695e-36
-7.79386e-37
3.91991e-37
1.532e-37
9.88197e-38
4.91545e-38
1.85257e-38
1.1263e-38
3.3445e-39
1.8407e-39
5.22074e-40
2.77337e-40
7.73969e-41
3.71012e-41
1.04787e-41
4.72638e-42
1.34935e-42
5.61887e-43
1.62761e-43
6.40692e-44
1.8761e-44
6.94452e-45
2.05451e-45
7.22335e-46
2.15135e-46
6.89123e-47
2.12497e-47
8.31381e-48
2.36502e-48
3.03628e-48
4.75493e-49
8.73935e-49
1.12446e-49
2.33821e-49
2.72577e-50
4.83366e-50
5.49478e-51
8.96434e-51
1.00123e-51
1.44562e-51
1.60651e-52
2.14537e-52
2.43989e-53
2.90171e-53
1.01285e-53
3.08087e-54
7.09279e-53
-5.55349e-54
7.35485e-52
-5.89854e-53
7.87129e-51
-5.9582e-52
8.52517e-50
-6.17908e-51
9.25605e-49
-6.62351e-50
9.90582e-48
-7.22093e-49
1.0368e-46
-7.93709e-48
1.05023e-45
-8.61973e-47
1.02606e-44
-9.18465e-46
9.60329e-44
-9.46972e-45
8.60191e-43
-9.41595e-44
7.31365e-42
-8.87554e-43
5.90516e-41
-7.80268e-42
4.45741e-40
-5.94006e-41
3.14984e-39
-3.17468e-40
2.00909e-38
7.93789e-40
1.15029e-37
5.54217e-38
5.30406e-37
1.0239e-36
1.81344e-36
1.28281e-35
2.89175e-36
1.20557e-34
1.9877e-36
9.40278e-35
1.20799e-34
4.79889e-37
3.08452e-37
-7.67567e-37
2.58377e-38
-1.4946e-37
2.10904e-38
2.0238e-38
1.00766e-38
9.18932e-39
2.51544e-39
2.3186e-39
5.47354e-40
4.06666e-40
9.5774e-41
6.39917e-41
1.53916e-41
8.88587e-42
2.20594e-42
1.16342e-42
2.9655e-43
1.41653e-43
3.69689e-44
1.64599e-44
4.37398e-45
1.81305e-45
4.89095e-46
1.91499e-46
5.22397e-47
1.91043e-47
5.30354e-48
1.99992e-48
5.45598e-49
3.74258e-49
7.21627e-50
8.39315e-50
1.22492e-50
2.05947e-50
2.50863e-51
4.16872e-51
4.76746e-52
7.69594e-52
8.49492e-53
1.24298e-52
1.34709e-53
1.85051e-53
1.18948e-54
2.52828e-54
-1.05109e-53
4.93286e-55
-1.40117e-52
2.55274e-54
-1.76787e-51
3.4701e-53
-2.16571e-50
4.57862e-52
-2.57429e-49
5.81359e-51
-2.97045e-48
7.12754e-50
-3.31923e-47
8.44864e-49
-3.59436e-46
9.69678e-48
-3.75559e-45
1.07591e-46
-3.79366e-44
1.15549e-45
-3.67709e-43
1.1962e-44
-3.43681e-42
1.19718e-43
-3.05573e-41
1.15094e-42
-2.61433e-40
1.07334e-41
-2.09395e-39
9.65854e-41
-1.61055e-38
8.64467e-40
-1.11397e-37
7.67585e-39
-7.33701e-37
7.04618e-38
-3.77005e-36
6.26522e-37
-1.79542e-35
5.25988e-36
-1.46921e-35
3.44053e-35
1.51096e-35
1.54905e-34
3.44272e-35
1.79826e-35
3.03372e-38
-1.53755e-37
-1.18475e-38
-3.16103e-38
-1.31395e-39
1.06716e-39
5.80176e-40
1.24616e-39
2.44385e-40
3.78045e-40
6.60636e-41
7.28652e-41
1.29243e-41
1.22911e-41
2.22888e-42
1.79661e-42
3.35427e-43
2.44884e-43
4.67221e-44
3.07675e-44
5.9874e-45
3.66611e-45
7.23886e-46
4.12048e-46
8.23944e-47
4.42736e-47
8.93643e-48
4.51985e-48
9.21852e-49
4.56984e-49
9.34496e-50
5.84113e-50
1.05146e-50
9.41438e-51
1.41042e-51
1.91493e-51
2.37615e-52
3.62873e-52
4.11849e-53
6.52941e-53
7.0452e-54
1.04584e-53
1.13951e-54
1.55512e-54
6.40823e-55
2.39625e-55
6.2679e-54
4.18021e-55
7.94313e-53
5.27785e-54
9.83737e-52
6.93625e-53
1.1856e-50
8.89049e-52
1.38741e-49
1.10929e-50
1.57539e-48
1.347e-49
1.73061e-47
1.58861e-48
1.83872e-46
1.81961e-47
1.88114e-45
2.01803e-46
1.85426e-44
2.16848e-45
1.74852e-43
2.24718e-44
1.58131e-42
2.25189e-43
1.35447e-41
2.16773e-42
1.10633e-40
2.02319e-41
8.40646e-40
1.81932e-40
6.03697e-39
1.62156e-39
3.86698e-38
1.42515e-38
2.28526e-37
1.28715e-37
1.04644e-36
1.121e-36
4.02039e-36
9.25209e-36
3.17765e-36
5.94715e-35
-3.1479e-36
2.67173e-34
5.93701e-35
-3.97314e-36
3.64865e-39
-2.09296e-38
-3.32964e-39
-4.88761e-39
-6.65032e-40
-1.57157e-40
-3.44069e-41
1.18516e-40
1.54938e-41
4.59721e-41
6.67466e-42
9.79756e-42
1.53036e-42
1.765e-42
2.88683e-43
2.70526e-43
4.5993e-44
3.82111e-44
6.6734e-45
4.93752e-45
8.8169e-46
6.01514e-46
1.09169e-46
6.88474e-47
1.26651e-47
7.51003e-48
1.39565e-48
7.78533e-49
1.46064e-49
7.84948e-50
1.48094e-50
8.68315e-51
1.5475e-51
1.11908e-51
1.77364e-52
1.84657e-52
2.44747e-53
3.16168e-53
3.71567e-54
5.42838e-54
6.04623e-55
8.53537e-55
2.91109e-55
1.26043e-55
2.726e-54
2.04423e-56
3.56017e-53
4.88657e-56
4.55619e-52
6.33436e-55
5.6792e-51
8.37861e-54
6.89072e-50
1.08155e-52
8.12203e-49
1.36005e-51
9.29682e-48
1.66591e-50
1.03044e-46
1.98358e-49
1.10612e-45
2.29702e-48
1.14487e-44
2.58067e-47
1.14408e-43
2.82274e-46
1.09593e-42
3.011e-45
1.01018e-41
3.19845e-44
8.84608e-41
3.49412e-43
7.42888e-40
4.21919e-42
5.83154e-39
5.86411e-41
4.37058e-38
9.19866e-40
2.94212e-37
1.47172e-38
1.86474e-36
2.20927e-37
9.23356e-36
2.89626e-36
4.09667e-35
3.15258e-35
3.33462e-35
2.66267e-34
-3.33187e-35
5.26568e-34
2.65685e-34
-4.05643e-35
4.1911e-40
-3.10501e-39
-4.88327e-40
-7.58715e-40
-1.13202e-40
-7.15708e-41
-1.3615e-41
5.80772e-42
1.55977e-43
4.62108e-42
5.47961e-43
1.14783e-42
1.54715e-43
2.25329e-43
3.2113e-44
3.64978e-44
5.4126e-45
5.36729e-45
8.16295e-46
7.14888e-46
1.10971e-46
8.91854e-47
1.40461e-47
1.04039e-47
1.65859e-48
1.15271e-48
1.85445e-49