/*--------------------------------*- C++ -*----------------------------------*\
| =========                 |                                                 |
| \\      /  F ield         | OpenFOAM: The Open Source CFD Toolbox           |
|  \\    /   O peration     | Version:  2.4.0                                 |
|   \\  /    A nd           | Web:      www.OpenFOAM.org                      |
|    \\/     M anipulation  |                                                 |
\*---------------------------------------------------------------------------*/
FoamFile
{
    version     2.0;
    format      ascii;
    class       volVectorField;
    location    "1";
    object      U;
}
// * * * * * * * * * * * * * * * * * * * * * * * * * * * * * * * * * * * * * //

dimensions      [0 1 -1 0 0 0 0];

internalField   nonuniform List<vector> 
7700
(
(1.80965e-35 6.07943e-36 0)
(1.33333e-34 3.55179e-35 0)
(6.06411e-34 1.94078e-34 0)
(4.75168e-33 1.34004e-34 0)
(4.26268e-33 -3.71373e-34 0)
(-4.25862e-33 -3.70383e-34 0)
(-4.72896e-33 1.4181e-34 0)
(-4.52784e-34 2.3655e-34 0)
(6.10067e-34 2.66274e-34 0)
(5.36169e-33 3.42821e-34 0)
(9.16746e-33 -1.93059e-34 0)
(7.62796e-34 -5.05374e-34 0)
(-3.49902e-33 1.34001e-34 0)
(4.41897e-33 3.2805e-34 0)
(4.7747e-33 -1.41956e-34 0)
(6.10067e-34 -1.9524e-34 0)
(1.34199e-34 -3.56851e-35 0)
(1.95222e-35 -6.82131e-36 0)
(3.14196e-36 -1.0093e-36 0)
(4.30119e-37 -1.46604e-37 0)
(5.88437e-38 -1.90774e-38 0)
(7.36002e-39 -2.40036e-39 0)
(8.96774e-40 -2.81634e-40 0)
(1.139e-40 -2.84554e-41 0)
(1.1486e-40 2.88072e-41 0)
(9.06876e-40 2.84706e-40 0)
(7.4509e-39 2.42878e-39 0)
(5.96344e-38 1.93268e-38 0)
(4.36561e-37 1.48715e-37 0)
(3.19324e-36 1.02591e-36 0)
(1.98916e-35 6.94827e-36 0)
(1.36896e-34 3.6543e-35 0)
(6.26329e-34 2.01014e-34 0)
(4.88852e-33 1.70525e-34 0)
(4.88852e-33 -1.70525e-34 0)
(6.26329e-34 -2.01014e-34 0)
(1.36896e-34 -3.6543e-35 0)
(1.98916e-35 -6.94827e-36 0)
(3.19323e-36 -1.02592e-36 0)
(4.36519e-37 -1.48788e-37 0)
(5.94107e-38 -1.97762e-38 0)
(6.37991e-39 -4.82519e-39 0)
(-2.76198e-39 -1.18581e-38 0)
(-1.06062e-38 -4.0299e-38 0)
(9.82468e-40 -1.23357e-37 0)
(1.40062e-38 -2.54276e-38 0)
(8.80681e-36 -2.73836e-36 0)
(5.7169e-35 -1.92821e-35 0)
(2.42645e-34 -1.04999e-34 0)
(1.16583e-33 -7.20335e-35 0)
(9.72453e-34 2.00304e-34 0)
(-9.70251e-34 1.99826e-34 0)
(-1.15428e-33 -7.5996e-35 0)
(-1.75183e-34 -1.27869e-34 0)
(2.44621e-34 -1.44197e-34 0)
(1.41041e-33 -1.84536e-34 0)
(2.20544e-33 1.04511e-34 0)
(3.1157e-34 2.72337e-34 0)
(-6.60391e-34 -7.20321e-35 0)
(1.04132e-33 -1.77022e-34 0)
(1.17755e-33 7.60616e-35 0)
(2.44621e-34 1.05557e-34 0)
(5.76795e-35 1.93946e-35 0)
(9.84197e-36 3.48659e-36 0)
(1.6753e-36 4.86388e-37 0)
(2.46658e-37 6.57394e-38 0)
(3.50792e-38 8.01435e-39 0)
(4.57e-39 9.48149e-40 0)
(5.72083e-40 1.05398e-40 0)
(7.47151e-41 1.01983e-41 0)
(7.5366e-41 -1.03141e-41 0)
(5.78811e-40 -1.06452e-40 0)
(4.62934e-39 -9.58335e-40 0)
(3.55818e-38 -8.10825e-39 0)
(2.50642e-37 -6.65797e-38 0)
(1.70568e-36 -4.93432e-37 0)
(1.00524e-35 -3.54411e-36 0)
(5.9099e-35 -1.98133e-35 0)
(2.52717e-34 -1.08541e-34 0)
(1.22489e-33 -9.18375e-35 0)
(1.22489e-33 9.18375e-35 0)
(2.52717e-34 1.08541e-34 0)
(5.9099e-35 1.98133e-35 0)
(1.00524e-35 3.5441e-36 0)
(1.70562e-36 4.93364e-37 0)
(2.50293e-37 6.6119e-38 0)
(3.3711e-38 5.19162e-39 0)
(-4.40675e-39 -1.49745e-38 0)
(-3.06663e-38 -7.86062e-38 0)
(-9.22575e-38 -2.82203e-37 0)
(7.73185e-39 -8.76265e-37 0)
(1.15382e-37 -1.81431e-37 0)
(2.99296e-36 -1.4581e-36 0)
(1.64539e-35 -9.39654e-36 0)
(5.60216e-35 -3.95583e-35 0)
(2.09163e-34 -2.37079e-35 0)
(1.67046e-34 7.48216e-35 0)
(-1.66233e-34 7.45378e-35 0)
(-2.05308e-34 -2.58612e-35 0)
(-3.61862e-35 -5.0879e-35 0)
(5.6742e-35 -5.87141e-35 0)
(2.65889e-34 -6.73224e-35 0)
(3.95921e-34 3.92657e-35 0)
(7.63728e-35 9.85283e-35 0)
(-9.04815e-35 -2.37065e-35 0)
(1.87377e-34 -6.32561e-35 0)
(2.13082e-34 2.59026e-35 0)
(5.67419e-35 3.98908e-35 0)
(1.66209e-35 9.45937e-36 0)
(3.23422e-36 1.87142e-36 0)
(6.07367e-37 2.89416e-37 0)
(9.58466e-38 4.16483e-38 0)
(1.43642e-38 5.40584e-39 0)
(1.94813e-39 6.69925e-40 0)
(2.51731e-40 7.78289e-41 0)
(3.37985e-41 7.77424e-42 0)
(3.41027e-41 -7.86844e-42 0)
(2.54825e-40 -7.86605e-41 0)
(1.97484e-39 -6.77689e-40 0)
(1.45845e-38 -5.47486e-39 0)
(9.75363e-38 -4.22384e-38 0)
(6.19722e-37 -2.94134e-37 0)
(3.31519e-36 -1.90751e-36 0)
(1.71285e-35 -9.70579e-36 0)
(5.93399e-35 -4.14619e-35 0)
(2.26275e-34 -3.34069e-35 0)
(2.26275e-34 3.34069e-35 0)
(5.93399e-35 4.14619e-35 0)
(1.71285e-35 9.70578e-36 0)
(3.31514e-36 1.90746e-36 0)
(6.19372e-37 2.93741e-37 0)
(9.53268e-38 3.95247e-38 0)
(2.58899e-39 -1.19216e-38 0)
(-5.67628e-38 -9.57463e-38 0)
(-2.0609e-37 -4.84332e-37 0)
(-6.19421e-37 -1.77087e-36 0)
(4.55547e-38 -5.58965e-36 0)
(7.57476e-37 -1.15845e-36 0)
(7.28513e-37 -5.75183e-37 0)
(3.46358e-36 -3.32248e-36 0)
(9.43606e-36 -1.27569e-35 0)
(2.90619e-35 -7.23141e-36 0)
(2.24903e-35 2.41124e-35 0)
(-2.22753e-35 2.39983e-35 0)
(-2.81283e-35 -8.05406e-36 0)
(-5.16793e-36 -1.6791e-35 0)
(9.62267e-36 -1.95149e-35 0)
(3.86788e-35 -2.15262e-35 0)
(5.57821e-35 1.26287e-35 0)
(1.38317e-35 3.13411e-35 0)
(-8.60548e-36 -7.22794e-36 0)
(2.68824e-35 -1.99714e-35 0)
(3.00103e-35 8.07174e-36 0)
(9.62266e-36 1.28829e-35 0)
(3.50057e-36 3.33651e-36 0)
(7.70775e-37 7.1167e-37 0)
(1.57697e-37 1.17187e-37 0)
(2.64514e-38 1.77877e-38 0)
(4.14134e-39 2.41362e-39 0)
(5.81263e-40 3.10319e-40 0)
(7.711e-41 3.71681e-41 0)
(1.05985e-41 3.79835e-42 0)
(1.06965e-41 -3.84633e-42 0)
(7.80933e-41 -3.75834e-41 0)
(5.89602e-40 -3.14112e-40 0)
(4.2086e-39 -2.44648e-39 0)
(2.69534e-38 -1.80599e-38 0)
(1.61238e-37 -1.19281e-37 0)
(7.9293e-37 -7.26969e-37 0)
(3.63064e-36 -3.43529e-36 0)
(1.02274e-35 -1.34725e-35 0)
(3.26868e-35 -1.06608e-35 0)
(3.26868e-35 1.06608e-35 0)
(1.02274e-35 1.34725e-35 0)
(3.6306e-36 3.43525e-36 0)
(7.92629e-37 7.26688e-37 0)
(1.5917e-37 1.17139e-37 0)
(1.37517e-38 3.08985e-39 0)
(-6.84724e-38 -9.4945e-38 0)
(-3.6118e-37 -5.49021e-37 0)
(-1.29569e-36 -2.81701e-36 0)
(-3.96135e-36 -1.05481e-35 0)
(2.45189e-37 -3.39726e-35 0)
(4.72495e-36 -7.0434e-36 0)
(1.14062e-37 -3.2085e-37 0)
(6.5806e-37 -9.3609e-37 0)
(1.29751e-36 -3.08124e-36 0)
(3.03324e-36 -1.64239e-36 0)
(2.25972e-36 5.69899e-36 0)
(-2.20749e-36 5.67038e-36 0)
(-2.8276e-36 -1.84727e-36 0)
(-4.77275e-37 -4.05407e-36 0)
(1.33013e-36 -4.73977e-36 0)
(4.35436e-36 -5.05697e-36 0)
(6.0841e-36 2.98093e-36 0)
(2.12611e-36 7.327e-36 0)
(-1.18718e-37 -1.6233e-36 0)
(3.09529e-36 -4.63664e-36 0)
(3.22703e-36 1.85232e-36 0)
(1.33012e-36 3.05307e-36 0)
(6.50017e-37 8.49412e-37 0)
(1.60953e-37 1.91508e-37 0)
(3.57361e-38 3.31469e-38 0)
(6.31968e-39 5.23634e-39 0)
(1.02881e-39 7.35158e-40 0)
(1.48728e-40 9.71229e-41 0)
(2.01924e-41 1.19022e-41 0)
(2.83222e-42 1.23682e-42 0)
(2.85904e-42 -1.25294e-42 0)
(2.04583e-41 -1.20396e-41 0)
(1.50948e-40 -9.83579e-41 0)
(1.04638e-39 -7.45652e-40 0)
(6.44764e-39 -5.32123e-39 0)
(3.66111e-38 -3.37821e-38 0)
(1.66203e-37 -1.95986e-37 0)
(6.79134e-37 -8.77128e-37 0)
(1.45327e-36 -3.20996e-36 0)
(3.70337e-36 -2.4997e-36 0)
(3.70336e-36 2.49969e-36 0)
(1.45324e-36 3.20994e-36 0)
(6.78918e-37 8.76957e-37 0)
(1.64558e-37 1.94593e-37 0)
(2.51578e-38 2.30247e-38 0)
(-6.77175e-38 -7.09431e-38 0)
(-4.14231e-37 -5.04327e-37 0)
(-2.10853e-36 -2.91133e-36 0)
(-7.73398e-36 -1.53169e-35 0)
(-2.4175e-35 -5.9125e-35 0)
(1.17676e-36 -1.94923e-34 0)
(2.80216e-35 -4.04826e-35 0)
(-2.43117e-37 -1.0719e-36 0)
(2.19129e-37 -7.48998e-37 0)
(2.1631e-37 -1.04165e-36 0)
(2.50041e-37 -4.46028e-37 0)
(1.50807e-37 1.19217e-36 0)
(-1.23112e-37 1.2062e-36 0)
(-1.62248e-37 -3.88587e-37 0)
(-9.55484e-39 -8.77967e-37 0)
(1.58371e-37 -1.02968e-36 0)
(3.58625e-37 -1.07691e-36 0)
(4.75366e-37 6.35184e-37 0)
(2.95414e-37 1.55417e-36 0)
(1.61377e-37 -3.34992e-37 0)
(2.82199e-37 -9.78063e-37 0)
(2.38927e-37 3.89028e-37 0)
(1.58352e-37 6.52823e-37 0)
(1.10016e-37 1.89958e-37 0)
(3.02057e-38 4.4861e-38 0)
(7.17443e-39 8.08008e-39 0)
(1.32527e-39 1.32075e-39 0)
(2.22795e-40 1.90747e-40 0)
(3.30176e-41 2.57893e-41 0)
(4.57142e-42 3.22143e-42 0)
(6.52487e-43 3.39513e-43 0)
(6.58795e-43 -3.44054e-43 0)
(4.6333e-42 -3.25967e-42 0)
(3.35274e-41 -2.61283e-41 0)
(2.26761e-40 -1.93581e-40 0)
(1.35358e-39 -1.34323e-39 0)
(7.36304e-39 -8.24427e-39 0)
(3.1299e-38 -4.59845e-38 0)
(1.15799e-37 -1.96666e-37 0)
(1.80935e-37 -6.8922e-37 0)
(3.16067e-37 -5.31469e-37 0)
(3.16054e-37 5.31458e-37 0)
(1.80802e-37 6.89133e-37 0)
(1.14721e-37 1.95903e-37 0)
(2.29956e-38 3.96779e-38 0)
(-5.1266e-38 -4.11911e-38 0)
(-3.84774e-37 -3.55376e-37 0)
(-2.20608e-36 -2.41609e-36 0)
(-1.14727e-35 -1.43252e-35 0)
(-4.33059e-35 -7.79545e-35 0)
(-1.38897e-34 -3.13182e-34 0)
(4.68378e-36 -1.06486e-33 0)
(1.55644e-34 -2.21075e-34 0)
(-1.47058e-36 -5.84379e-36 0)
(8.19688e-37 -3.13217e-36 0)
(4.49582e-37 -2.34042e-36 0)
(2.96128e-37 -6.69708e-37 0)
(7.67353e-38 8.7818e-38 0)
(2.9105e-38 2.04172e-37 0)
(1.5488e-38 -7.73525e-38 0)
(8.28049e-39 -1.70009e-37 0)
(1.73236e-38 -1.99251e-37 0)
(1.22779e-38 -2.04853e-37 0)
(1.11381e-38 1.2082e-37 0)
(3.98652e-38 2.94558e-37 0)
(4.71827e-38 -6.19404e-38 0)
(1.74172e-38 -1.84437e-37 0)
(1.95916e-39 7.31265e-38 0)
(1.72226e-38 1.24583e-37 0)
(1.79181e-38 3.76247e-38 0)
(5.33618e-39 9.2295e-39 0)
(1.33632e-39 1.71856e-39 0)
(2.55443e-40 2.88952e-40 0)
(4.4078e-41 4.27317e-41 0)
(6.66687e-42 5.89026e-42 0)
(9.38353e-43 7.4779e-43 0)
(1.35926e-43 7.97601e-44 0)
(1.37263e-43 -8.08509e-44 0)
(9.51357e-43 -7.56882e-43 0)
(6.77275e-42 -5.9699e-42 0)
(4.48902e-41 -4.33883e-41 0)
(2.61143e-40 -2.94073e-40 0)
(1.37348e-39 -1.75522e-39 0)
(5.54565e-39 -9.47422e-39 0)
(1.89855e-38 -3.90425e-38 0)
(2.1133e-38 -1.32008e-37 0)
(1.40191e-38 -1.00944e-37 0)
(1.39584e-38 1.00904e-37 0)
(2.05371e-38 1.3167e-37 0)
(1.40663e-38 3.60456e-38 0)
(-3.2881e-38 -1.56347e-38 0)
(-2.74476e-37 -1.98464e-37 0)
(-1.85406e-36 -1.47617e-36 0)
(-1.0859e-35 -1.02907e-35 0)
(-5.81524e-35 -6.33193e-35 0)
(-2.2735e-34 -3.60229e-34 0)
(-7.54475e-34 -1.52672e-33 0)
(1.34784e-35 -5.37596e-33 0)
(8.13721e-34 -1.1201e-33 0)
(-6.82394e-36 -3.07564e-35 0)
(6.09844e-36 -1.60648e-35 0)
(2.84292e-36 -1.16902e-35 0)
(1.74089e-36 -3.13699e-36 0)
(4.61093e-37 -6.83982e-37 0)
(1.14465e-37 -8.96248e-38 0)
(2.60835e-38 -3.44701e-38 0)
(5.63295e-39 -3.36617e-38 0)
(2.3212e-39 -3.63785e-38 0)
(-2.68595e-39 -3.6577e-38 0)
(-4.86408e-39 2.15165e-38 0)
(5.40645e-39 5.23569e-38 0)
(9.45233e-39 -1.07955e-38 0)
(-8.04059e-41 -3.26443e-38 0)
(-3.39693e-39 1.29267e-38 0)
(1.80574e-39 2.2257e-38 0)
(2.81836e-39 6.91259e-39 0)
(8.90797e-40 1.7494e-39 0)
(2.32033e-40 3.34636e-40 0)
(4.5559e-41 5.75934e-41 0)
(8.02792e-42 8.68557e-42 0)
(1.23494e-42 1.21681e-42 0)
(1.76234e-43 1.56596e-43 0)
(2.58535e-44 1.68729e-44 0)
(2.61117e-44 -1.71081e-44 0)
(1.78726e-43 -1.58539e-43 0)
(1.25502e-42 -1.23366e-42 0)
(8.18015e-42 -8.82286e-42 0)
(4.66121e-41 -5.86491e-41 0)
(2.38778e-40 -3.42068e-40 0)
(9.27946e-40 -1.798e-39 0)
(3.00205e-39 -7.1873e-39 0)
(2.44537e-39 -2.36555e-38 0)
(-1.59008e-39 -1.79863e-38 0)
(-1.82895e-39 1.78527e-38 0)
(7.54351e-41 2.25162e-38 0)
(-1.68156e-38 -3.06089e-39 0)
(-1.5636e-37 -8.55017e-38 0)
(-1.15069e-36 -7.1117e-37 0)
(-7.9227e-36 -5.39881e-36 0)
(-4.77577e-35 -3.91479e-35 0)
(-2.64687e-34 -2.53791e-34 0)
(-1.07895e-33 -1.5392e-33 0)
(-3.72436e-33 -7.02229e-33 0)
(4.51531e-36 -2.61021e-32 0)
(3.82788e-33 -5.39759e-33 0)
(-2.25834e-35 -1.53489e-34 0)
(4.66469e-35 -7.63242e-35 0)
(1.86478e-35 -5.56332e-35 0)
(9.72989e-36 -1.44938e-35 0)
(2.44508e-36 -3.24807e-36 0)
(5.57288e-37 -5.63303e-37 0)
(1.01285e-37 -9.3916e-38 0)
(1.70015e-38 -1.8263e-38 0)
(2.6243e-39 -7.8307e-39 0)
(-5.05068e-40 -6.31939e-39 0)
(-1.28419e-39 3.56519e-39 0)
(7.54272e-40 8.71741e-39 0)
(1.62204e-39 -1.76716e-39 0)
(-2.56138e-40 -5.41658e-39 0)
(-8.45108e-40 2.14292e-39 0)
(1.93809e-40 3.72332e-39 0)
(4.31674e-40 1.18395e-39 0)
(1.42132e-40 3.07357e-40 0)
(3.811e-41 6.01178e-41 0)
(7.64031e-42 1.05479e-41 0)
(1.36921e-42 1.61698e-42 0)
(2.13585e-43 2.29643e-43 0)
(3.08358e-44 2.98984e-44 0)
(4.57249e-45 3.24953e-45 0)
(4.61873e-45 -3.29559e-45 0)
(3.12789e-44 -3.02759e-44 0)
(2.17125e-43 -2.32888e-43 0)
(1.39575e-42 -1.64317e-42 0)
(7.82134e-42 -1.0747e-41 0)
(3.92489e-41 -6.15e-41 0)
(1.48248e-40 -3.16253e-40 0)
(4.60727e-40 -1.23334e-39 0)
(2.85027e-40 -3.9703e-39 0)
(-6.69459e-40 -3.02904e-39 0)
(-1.49324e-39 2.69321e-39 0)
(-7.98619e-39 1.06887e-39 0)
(-6.97819e-38 -2.52766e-38 0)
(-5.68141e-37 -2.30111e-37 0)
(-4.25427e-36 -1.93214e-36 0)
(-3.01426e-35 -1.52765e-35 0)
(-1.88043e-34 -1.17578e-34 0)
(-1.08807e-33 -8.27778e-34 0)
(-4.66289e-33 -5.51566e-33 0)
(-1.71296e-32 -2.80336e-32 0)
(-1.95572e-34 -1.10002e-31 0)
(1.66767e-32 -2.29546e-32 0)
(-6.58789e-36 -6.9638e-34 0)
(3.46262e-34 -3.38984e-34 0)
(1.17723e-34 -2.50036e-34 0)
(5.00887e-35 -6.22442e-35 0)
(1.16609e-35 -1.34354e-35 0)
(2.51512e-36 -2.26791e-36 0)
(4.36881e-37 -3.54889e-37 0)
(7.05457e-38 -5.0247e-38 0)
(1.01506e-38 -7.48308e-39 0)
(1.21309e-39 -1.76604e-39 0)
(-6.88385e-41 4.76442e-40 0)
(1.25137e-40 1.37085e-39 0)
(2.55233e-40 -2.76831e-40 0)
(-5.57766e-41 -8.55299e-40 0)
(-1.49677e-40 3.38095e-40 0)
(2.20726e-41 5.91872e-40 0)
(6.39354e-41 1.91809e-40 0)
(2.16603e-41 5.07929e-41 0)
(5.93519e-42 1.01107e-41 0)
(1.21002e-42 1.80084e-42 0)
(2.19884e-43 2.79654e-43 0)
(3.47078e-44 4.01442e-44 0)
(5.06086e-45 5.27475e-45 0)
(7.57499e-46 5.77211e-46 0)
(7.65172e-46 -5.85512e-46 0)
(5.13365e-45 -5.34241e-45 0)
(3.52804e-44 -4.07227e-44 0)
(2.24079e-43 -2.84295e-43 0)
(1.23759e-42 -1.8359e-42 0)
(6.0972e-42 -1.0353e-41 0)
(2.24e-41 -5.23503e-41 0)
(6.60293e-41 -2.00559e-40 0)
(1.10537e-41 -6.37607e-40 0)
(-3.70384e-40 -5.3386e-40 0)
(-2.57935e-39 -1.11339e-40 0)
(-2.24633e-38 -5.03054e-39 0)
(-1.94117e-37 -5.27002e-38 0)
(-1.60459e-36 -4.73241e-37 0)
(-1.23229e-35 -4.1565e-36 0)
(-9.01135e-35 -3.52348e-35 0)
(-5.84204e-34 -3.01207e-34 0)
(-3.54159e-33 -2.42381e-33 0)
(-1.60743e-32 -1.86881e-32 0)
(-6.31368e-32 -1.10087e-31 0)
(-1.22475e-33 -4.87028e-31 0)
(5.51878e-32 -9.62883e-32 0)
(-1.35726e-35 -4.60674e-36 0)
(-1.06829e-34 -2.8255e-35 0)
(-5.0565e-34 -1.69685e-34 0)
(-4.33815e-33 -1.21528e-34 0)
(-3.9271e-33 3.25383e-34 0)
(3.9271e-33 3.25383e-34 0)
(4.33815e-33 -1.21527e-34 0)
(5.0567e-34 -1.69679e-34 0)
(1.07067e-34 -2.82569e-35 0)
(1.43979e-35 -5.10983e-36 0)
(2.20137e-36 -7.014e-37 0)
(2.76778e-37 -9.74656e-38 0)
(-5.50566e-42 -2.33723e-38 0)
(-2.76832e-37 -9.74819e-38 0)
(-2.20187e-36 -7.01554e-37 0)
(-1.44022e-35 -5.11123e-36 0)
(-1.07103e-34 -2.82687e-35 0)
(-5.05955e-34 -1.69776e-34 0)
(-4.34039e-33 -1.2224e-34 0)
(-3.94179e-33 3.20176e-34 0)
(3.8178e-33 2.96413e-34 0)
(3.8178e-33 -2.96413e-34 0)
(-3.94179e-33 -3.20176e-34 0)
(-4.34039e-33 1.2224e-34 0)
(-5.05955e-34 1.69776e-34 0)
(-1.07104e-34 2.82686e-35 0)
(-1.44065e-35 5.10982e-36 0)
(-2.23912e-36 6.89578e-37 0)
(-5.65932e-37 -1.23086e-39 0)
(-2.27071e-36 -6.99998e-37 0)
(-1.46507e-35 -5.19407e-36 0)
(-1.0902e-34 -2.88724e-35 0)
(-5.18115e-34 -1.74173e-34 0)
(-4.43277e-33 -1.4529e-34 0)
(-4.33815e-33 1.79467e-34 0)
(-3.96311e-39 3.49771e-34 0)
(4.33812e-33 1.79457e-34 0)
(4.43251e-33 -1.45364e-34 0)
(5.15773e-34 -1.74337e-34 0)
(9.81942e-35 -2.54914e-35 0)
(-6.63872e-36 2.07666e-36 0)
(-4.58292e-35 1.53324e-35 0)
(-2.04045e-34 9.17665e-35 0)
(-1.07556e-33 6.53509e-35 0)
(-9.11231e-34 -1.75457e-34 0)
(9.11232e-34 -1.75457e-34 0)
(1.07556e-33 6.53507e-35 0)
(2.04059e-34 9.17657e-35 0)
(4.5974e-35 1.53579e-35 0)
(7.27391e-36 2.59901e-36 0)
(1.17215e-36 3.35995e-37 0)
(1.5855e-37 4.33029e-38 0)
(-3.66981e-42 9.7469e-39 0)
(-1.58585e-37 4.33087e-38 0)
(-1.17246e-36 3.36052e-37 0)
(-7.27659e-36 2.59956e-36 0)
(-4.59959e-35 1.53628e-35 0)
(-2.04223e-34 9.1809e-35 0)
(-1.07675e-33 6.56916e-35 0)
(-9.18669e-34 -1.72815e-34 0)
(8.64063e-34 -1.59759e-34 0)
(8.64063e-34 1.59759e-34 0)
(-9.18669e-34 1.72815e-34 0)
(-1.07675e-33 -6.56916e-35 0)
(-2.04223e-34 -9.1809e-35 0)
(-4.59962e-35 -1.53628e-35 0)
(-7.27929e-36 -2.599e-36 0)
(-1.19468e-36 -3.31071e-37 0)
(-3.24773e-37 4.85973e-40 0)
(-1.21335e-36 3.35446e-37 0)
(-7.41851e-36 2.63684e-36 0)
(-4.70048e-35 1.56554e-35 0)
(-2.10302e-34 9.40671e-35 0)
(-1.11529e-33 7.84072e-35 0)
(-1.07556e-33 -9.67482e-35 0)
(-2.59459e-39 -1.88815e-34 0)
(1.07554e-33 -9.67449e-35 0)
(1.11513e-33 7.8423e-35 0)
(2.09004e-34 9.38952e-35 0)
(4.07018e-35 1.14038e-35 0)
(-2.2724e-36 1.10562e-36 0)
(-1.33235e-35 7.5212e-36 0)
(-4.7475e-35 3.48742e-35 0)
(-1.94866e-34 2.20697e-35 0)
(-1.58713e-34 -6.61038e-35 0)
(1.58713e-34 -6.61039e-35 0)
(1.94866e-34 2.20695e-35 0)
(4.7478e-35 3.48733e-35 0)
(1.33589e-35 7.53298e-36 0)
(2.40665e-36 1.39689e-36 0)
(4.27566e-37 2.00393e-37 0)
(6.18147e-38 2.74843e-38 0)
(-1.69493e-42 6.58061e-39 0)
(-6.18306e-38 2.74887e-38 0)
(-4.27705e-37 2.00435e-37 0)
(-2.4078e-36 1.39728e-36 0)
(-1.33679e-35 7.53631e-36 0)
(-4.75421e-35 3.49008e-35 0)
(-1.95303e-34 2.22732e-35 0)
(-1.61184e-34 -6.46795e-35 0)
(1.44918e-34 -5.83672e-35 0)
(1.44918e-34 5.83672e-35 0)
(-1.61184e-34 6.46795e-35 0)
(-1.95303e-34 -2.22732e-35 0)
(-4.75421e-35 -3.49008e-35 0)
(-1.33681e-35 -7.53627e-36 0)
(-2.40895e-36 -1.39689e-36 0)
(-4.36857e-37 -1.97066e-37 0)
(-1.26909e-37 3.41466e-40 0)
(-4.44482e-37 2.00005e-37 0)
(-2.46285e-36 1.42066e-36 0)
(-1.37317e-35 7.70913e-36 0)
(-4.9512e-35 3.6094e-35 0)
(-2.06191e-34 2.83818e-35 0)
(-1.94866e-34 -3.75428e-35 0)
(-7.41905e-40 -7.2595e-35 0)
(1.9486e-34 -3.75403e-35 0)
(2.06153e-34 2.83945e-35 0)
(4.92215e-35 3.60245e-35 0)
(1.22824e-35 5.59557e-36 0)
(-5.62222e-37 4.18087e-37 0)
(-2.83332e-36 2.65711e-36 0)
(-8.06131e-36 1.12849e-35 0)
(-2.73729e-35 6.80986e-36 0)
(-2.16688e-35 -2.13856e-35 0)
(2.16688e-35 -2.13856e-35 0)
(2.73729e-35 6.80982e-36 0)
(8.06159e-36 1.12848e-35 0)
(2.83842e-36 2.66323e-36 0)
(5.77481e-37 5.33115e-37 0)
(1.11625e-37 8.14497e-38 0)
(1.71079e-38 1.17976e-38 0)
(-5.40566e-43 2.94861e-39 0)
(-1.71129e-38 1.17997e-38 0)
(-1.11667e-37 8.147e-38 0)
(-5.77824e-37 5.33295e-37 0)
(-2.84103e-36 2.66472e-36 0)
(-8.07938e-36 1.12966e-35 0)
(-2.74872e-35 6.89274e-36 0)
(-2.2264e-35 -2.08407e-35 0)
(1.87161e-35 -1.86395e-35 0)
(1.87161e-35 1.86395e-35 0)
(-2.2264e-35 2.08407e-35 0)
(-2.74872e-35 -6.89274e-36 0)
(-8.07938e-36 -1.12966e-35 0)
(-2.84107e-36 -2.6647e-36 0)
(-5.7817e-37 -5.33113e-37 0)
(-1.14319e-37 -7.99576e-38 0)
(-3.51961e-38 1.58058e-40 0)
(-1.16511e-37 8.12692e-38 0)
(-5.92998e-37 5.4324e-37 0)
(-2.93495e-36 2.73433e-36 0)
(-8.54259e-36 1.17467e-35 0)
(-2.97304e-35 9.01106e-36 0)
(-2.7373e-35 -1.23021e-35 0)
(-1.3857e-40 -2.36592e-35 0)
(2.7372e-35 -1.23014e-35 0)
(2.97254e-35 9.01372e-36 0)
(8.50637e-36 1.17104e-35 0)
(2.72029e-36 1.9574e-36 0)
(-1.23228e-37 1.11417e-37 0)
(-5.32508e-37 6.7723e-37 0)
(-1.11345e-36 2.67847e-36 0)
(-2.9142e-36 1.54687e-36 0)
(-2.23382e-36 -5.07559e-36 0)
(2.23382e-36 -5.07559e-36 0)
(2.9142e-36 1.54687e-36 0)
(1.11336e-36 2.67851e-36 0)
(5.32561e-37 6.79342e-37 0)
(1.21413e-37 1.43832e-37 0)
(2.54367e-38 2.31043e-38 0)
(4.09874e-39 3.48522e-39 0)
(-1.46656e-43 9.0023e-40 0)
(-4.10006e-39 3.48593e-39 0)
(-2.54479e-38 2.31109e-38 0)
(-1.21501e-37 1.43888e-37 0)
(-5.33213e-37 6.79799e-37 0)
(-1.11763e-36 2.68199e-36 0)
(-2.9403e-36 1.57043e-36 0)
(-2.35951e-36 -4.92828e-36 0)
(1.67516e-36 -4.3727e-36 0)
(1.67516e-36 4.3727e-36 0)
(-2.35951e-36 4.92828e-36 0)
(-2.9403e-36 -1.57043e-36 0)
(-1.11763e-36 -2.68199e-36 0)
(-5.33225e-37 -6.79792e-37 0)
(-1.2159e-37 -1.43831e-37 0)
(-2.61098e-38 -2.26485e-38 0)
(-8.4488e-39 4.94132e-41 0)
(-2.66531e-38 2.30477e-38 0)
(-1.25122e-37 1.46804e-37 0)
(-5.54399e-37 6.99405e-37 0)
(-1.21295e-36 2.80227e-36 0)
(-3.34718e-36 2.10245e-36 0)
(-2.91421e-36 -2.95266e-36 0)
(-1.37876e-41 -5.65162e-36 0)
(2.91415e-36 -2.95254e-36 0)
(3.34733e-36 2.1026e-36 0)
(1.21388e-36 2.78971e-36 0)
(5.42082e-37 4.91903e-37 0)
(-2.41225e-38 2.5781e-38 0)
(-9.11762e-38 1.5128e-37 0)
(-1.32054e-37 5.73128e-37 0)
(-2.07672e-37 3.21754e-37 0)
(-1.48111e-37 -1.08751e-36 0)
(1.48111e-37 -1.08751e-36 0)
(2.07674e-37 3.21764e-37 0)
(1.32031e-37 5.73204e-37 0)
(9.10108e-38 1.52121e-37 0)
(2.29151e-38 3.37772e-38 0)
(5.12955e-39 5.64707e-39 0)
(8.6136e-40 8.82105e-40 0)
(-3.42282e-44 2.34122e-40 0)
(-8.61666e-40 8.823e-40 0)
(-5.13209e-39 5.64884e-39 0)
(-2.29347e-38 3.37923e-38 0)
(-9.11525e-38 1.5224e-37 0)
(-1.32931e-37 5.74086e-37 0)
(-2.12947e-37 3.27528e-37 0)
(-1.71927e-37 -1.05285e-36 0)
(5.18266e-38 -9.29627e-37 0)
(5.18266e-38 9.29627e-37 0)
(-1.71927e-37 1.05285e-36 0)
(-2.12947e-37 -3.27528e-37 0)
(-1.32932e-37 -5.74086e-37 0)
(-9.11551e-38 -1.52238e-37 0)
(-2.29545e-38 -3.3777e-38 0)
(-5.276e-39 -5.52847e-39 0)
(-1.7786e-39 1.31132e-41 0)
(-5.3934e-39 5.632e-39 0)
(-2.36932e-38 3.45256e-38 0)
(-9.53869e-38 1.57001e-37 0)
(-1.50573e-37 6.02099e-37 0)
(-2.80143e-37 4.4499e-37 0)
(-2.07674e-37 -6.37535e-37 0)
(8.85619e-43 -1.21572e-36 0)
(2.07693e-37 -6.37526e-37 0)
(2.80398e-37 4.44859e-37 0)
(1.52226e-37 5.98403e-37 0)
(9.84213e-38 1.08439e-37 0)
(-3.32424e-39 4.05464e-39 0)
(-1.47304e-38 2.83593e-38 0)
(-1.4051e-38 1.0912e-37 0)
(6.97924e-40 5.98677e-38 0)
(3.21095e-39 -2.07935e-37 0)
(-3.20389e-39 -2.07929e-37 0)
(-6.62259e-40 5.99225e-38 0)
(1.42307e-38 1.09455e-37 0)
(1.49406e-38 3.01632e-38 0)
(4.06548e-39 6.96352e-39 0)
(9.58732e-40 1.20373e-39 0)
(1.66289e-40 1.93534e-40 0)
(-7.21016e-45 5.2548e-41 0)
(-1.66353e-40 1.9358e-40 0)
(-9.59254e-40 1.20414e-39 0)
(-4.06944e-39 6.96697e-39 0)
(-1.49687e-38 3.01899e-38 0)
(-1.44048e-38 1.09648e-37 0)
(-3.24997e-40 6.11526e-38 0)
(-1.03495e-39 -2.00771e-37 0)
(-1.91327e-38 -1.76534e-37 0)
(-1.91327e-38 1.76534e-37 0)
(-1.03496e-39 2.00771e-37 0)
(-3.25005e-40 -6.11526e-38 0)
(-1.44049e-38 -1.09648e-37 0)
(-1.49692e-38 -3.01895e-38 0)
(-4.07345e-39 -6.96348e-39 0)
(-9.8782e-40 -1.1771e-39 0)
(-3.43878e-40 2.99312e-42 0)
(-1.011e-39 1.20028e-39 0)
(-4.21547e-39 7.12697e-39 0)
(-1.57543e-38 3.11992e-38 0)
(-1.7483e-38 1.15382e-37 0)
(-1.10259e-38 8.41587e-38 0)
(6.62418e-40 -1.22709e-37 0)
(8.64131e-43 -2.33224e-37 0)
(-6.5316e-40 -1.22712e-37 0)
(1.11099e-38 8.40994e-38 0)
(1.80066e-38 1.1448e-37 0)
(1.71006e-38 2.11865e-38 0)
(1.73841e-38 -2.57964e-39 0)
(1.65492e-39 -5.48311e-39 0)
(7.35418e-41 1.75314e-38 0)
(3.84212e-39 1.01932e-38 0)
(3.26609e-39 -3.72507e-38 0)
(-3.22035e-39 -3.72172e-38 0)
(-3.58086e-39 1.05036e-38 0)
(1.46753e-39 1.95615e-38 0)
(2.36316e-39 5.54627e-39 0)
(6.80668e-40 1.3222e-39 0)
(1.66886e-40 2.34823e-40 0)
(2.96911e-41 3.86688e-41 0)
(-1.38414e-45 1.06981e-41 0)
(-2.97033e-41 3.86786e-41 0)
(-1.66984e-40 2.34909e-40 0)
(-6.81402e-40 1.32292e-39 0)
(-2.36829e-39 5.55171e-39 0)
(-1.49862e-39 1.96002e-38 0)
(3.40935e-39 1.07443e-38 0)
(2.51366e-39 -3.5852e-38 0)
(-5.76077e-39 -3.14265e-38 0)
(-5.76077e-39 3.14265e-38 0)
(2.51366e-39 3.5852e-38 0)
(3.40935e-39 -1.07442e-38 0)
(-1.49863e-39 -1.96002e-38 0)
(-2.36839e-39 -5.55162e-39 0)
(-6.82148e-40 -1.3222e-39 0)
(-1.722e-40 -2.29399e-40 0)
(-6.14775e-41 6.17999e-43 0)
(-1.76415e-40 2.34109e-40 0)
(-7.0742e-40 1.35473e-39 0)
(-2.50422e-39 5.74768e-39 0)
(-2.00719e-39 2.06822e-38 0)
(1.75803e-39 1.49296e-38 0)
(3.58149e-39 -2.2077e-38 0)
(2.63887e-43 -4.18449e-38 0)
(-3.57903e-39 -2.20784e-38 0)
(-1.73833e-39 1.49125e-38 0)
(2.1256e-39 2.04863e-38 0)
(2.83322e-39 3.84281e-39 0)
(2.76232e-37 -8.57703e-38 0)
(4.22664e-38 -6.30409e-38 0)
(1.16528e-38 -7.41598e-39 0)
(2.58275e-39 2.88045e-40 0)
(9.72397e-40 -6.39651e-39 0)
(-7.03533e-40 -6.25176e-39 0)
(-8.52619e-40 1.72633e-39 0)
(1.53943e-40 3.27311e-39 0)
(3.63258e-40 9.50585e-40 0)
(1.08817e-40 2.3263e-40 0)
(2.74593e-41 4.22497e-41 0)
(4.98314e-42 7.09613e-42 0)
(-2.45054e-46 1.99427e-42 0)
(-4.98526e-42 7.09802e-42 0)
(-2.74762e-41 4.22662e-41 0)
(-1.08941e-40 2.32766e-40 0)
(-3.64104e-40 9.51613e-40 0)
(-1.58855e-40 3.28036e-39 0)
(8.27418e-40 1.77123e-39 0)
(6.17811e-40 -5.9951e-39 0)
(-1.12344e-39 -5.24098e-39 0)
(-1.12344e-39 5.24098e-39 0)
(6.17811e-40 5.9951e-39 0)
(8.27418e-40 -1.77123e-39 0)
(-1.58857e-40 -3.28036e-39 0)
(-3.64121e-40 -9.51596e-40 0)
(-1.0907e-40 -2.3263e-40 0)
(-2.8368e-41 -4.12384e-41 0)
(-1.03289e-41 1.16571e-43 0)
(-2.90856e-41 4.21148e-41 0)
(-1.133e-40 2.38581e-40 0)
(-3.86361e-40 9.86732e-40 0)
(-2.3932e-40 3.46974e-39 0)
(5.78243e-40 2.4821e-39 0)
(8.55777e-40 -3.71568e-39 0)
(6.06892e-44 -7.02602e-39 0)
(-8.5525e-40 -3.71607e-39 0)
(-5.74327e-40 2.47815e-39 0)
(2.62124e-40 3.4315e-39 0)
(4.5167e-40 6.50711e-40 0)
(3.457e-36 3.96594e-37 0)
(5.00222e-37 -3.13213e-37 0)
(8.01905e-38 -4.95022e-38 0)
(9.93693e-39 -5.5187e-39 0)
(1.29209e-39 -1.59327e-39 0)
(-8.50023e-43 -1.05055e-39 0)
(-1.37324e-40 2.65433e-40 0)
(1.82466e-41 5.19944e-40 0)
(5.40268e-41 1.54051e-40 0)
(1.66147e-41 3.84824e-41 0)
(4.28296e-42 7.11363e-42 0)
(7.89701e-43 1.21336e-42 0)
(-3.50182e-47 3.45246e-43 0)
(-7.8998e-43 1.21371e-42 0)
(-4.28486e-42 7.11681e-42 0)
(-1.66248e-41 3.85095e-41 0)
(-5.40496e-41 1.54268e-40 0)
(-1.78135e-41 5.2164e-40 0)
(1.45871e-40 2.78126e-40 0)
(1.08945e-40 -9.52644e-40 0)
(-1.84714e-40 -8.30964e-40 0)
(-1.84714e-40 8.30964e-40 0)
(1.08945e-40 9.52644e-40 0)
(1.45871e-40 -2.78126e-40 0)
(-1.78139e-41 -5.21639e-40 0)
(-5.40525e-41 -1.54265e-40 0)
(-1.66458e-41 -3.84856e-41 0)
(-4.42834e-42 -6.93877e-42 0)
(-1.63823e-42 2.03678e-44 0)
(-4.54341e-42 7.0903e-42 0)
(-1.73145e-41 3.95005e-41 0)
(-5.75065e-41 1.60162e-40 0)
(-2.99924e-41 5.52838e-40 0)
(1.09397e-40 3.92519e-40 0)
(1.50298e-40 -5.93598e-40 0)
(1.18976e-44 -1.12026e-39 0)
(-1.50199e-40 -5.93683e-40 0)
(-1.08703e-40 3.91728e-40 0)
(3.39118e-41 5.45967e-40 0)
(6.8833e-41 1.04446e-40 0)
(8.63226e-34 -3.57328e-33 0)
(2.77053e-33 -1.47353e-33 0)
(8.15729e-34 -1.0408e-33 0)
(2.8668e-34 -2.45486e-34 0)
(6.05968e-35 -5.04396e-35 0)
(1.22446e-35 -8.18687e-36 0)
(2.03042e-36 -1.23814e-36 0)
(3.1719e-37 -1.68247e-37 0)
(4.44307e-38 -2.18051e-38 0)
(5.87295e-39 -2.71909e-39 0)
(6.98411e-40 -2.39989e-40 0)
(9.57007e-41 1.1575e-40 0)
(3.64133e-41 -3.27318e-41 0)
(-5.83094e-42 -9.20975e-41 0)
(-1.68431e-41 3.62993e-41 0)
(1.89103e-42 6.39166e-41 0)
(6.62977e-42 2.10983e-41 0)
(2.29152e-42 5.73001e-42 0)
(6.37832e-43 1.16505e-42 0)
(1.31677e-43 2.11779e-43 0)
(2.41783e-44 3.34666e-44 0)
(3.85063e-45 4.88014e-45 0)
(5.65667e-46 6.50027e-46 0)
(8.52487e-47 7.19018e-47 0)
(8.59494e-47 -7.2943e-47 0)
(5.71529e-46 -6.58364e-46 0)
(3.88541e-45 -4.94986e-45 0)
(2.42865e-44 -3.40086e-44 0)
(1.30471e-43 -2.15684e-43 0)
(6.06624e-43 -1.18992e-42 0)
(1.82633e-42 -5.86684e-42 0)
(9.66504e-43 -2.16025e-41 0)
(-6.05597e-41 -6.37724e-41 0)
(-6.56467e-40 -4.08042e-42 0)
(-6.21181e-39 5.11546e-40 0)
(-5.75706e-38 4.3171e-39 0)
(-5.07674e-37 3.65909e-38 0)
(-4.31018e-36 2.74779e-37 0)
(-3.41224e-35 1.51325e-36 0)
(-2.59995e-34 -1.12448e-36 0)
(-1.76393e-33 -1.90619e-34 0)
(-1.1479e-32 -3.48569e-33 0)
(-5.61721e-32 -4.09105e-32 0)
(-2.63185e-31 -3.35579e-31 0)
(1.88825e-33 -1.59529e-30 0)
(2.62979e-31 -3.3481e-31 0)
(1.60445e-32 -1.74603e-32 0)
(2.94552e-32 -7.54852e-33 0)
(6.86068e-33 -5.40747e-33 0)
(1.81299e-33 -1.10784e-33 0)
(3.34495e-34 -2.15143e-34 0)
(6.08654e-35 -3.30505e-35 0)
(9.44612e-36 -4.8448e-36 0)
(1.40432e-36 -6.39287e-37 0)
(1.89837e-37 -8.08773e-38 0)
(2.44881e-38 -9.57751e-39 0)
(2.95183e-39 -1.08133e-39 0)
(3.41882e-40 -1.03063e-40 0)
(3.96631e-41 -1.50103e-41 0)
(3.32423e-42 -1.00599e-41 0)
(-1.08147e-42 3.38102e-42 0)
(1.82971e-43 6.17786e-42 0)
(5.64679e-43 2.0667e-42 0)
(1.97458e-43 5.67342e-43 0)
(5.58532e-44 1.16499e-43 0)
(1.16903e-44 2.13408e-44 0)
(2.1744e-45 3.39546e-45 0)
(3.50191e-46 4.97747e-46 0)
(5.19625e-47 6.65994e-47 0)
(7.91699e-48 7.39348e-48 0)
(8.11094e-48 -7.44719e-48 0)
(5.42732e-47 -6.68008e-47 0)
(3.7525e-46 -4.96499e-46 0)
(2.44729e-45 -3.34616e-45 0)
(1.46552e-44 -2.04679e-44 0)
(8.79374e-44 -1.04045e-43 0)
(5.39319e-43 -4.09753e-43 0)
(4.14083e-42 -2.18089e-43 0)
(3.64961e-41 1.42174e-41 0)
(3.56507e-40 2.10536e-40 0)
(3.38196e-39 2.15072e-39 0)
(3.07411e-38 2.0341e-38 0)
(2.6508e-37 1.81956e-37 0)
(2.18623e-36 1.46431e-36 0)
(1.68223e-35 9.67963e-36 0)
(1.23042e-34 2.80096e-35 0)
(8.04783e-34 -5.21208e-34 0)
(4.91206e-33 -1.33416e-32 0)
(2.30037e-32 -1.83662e-31 0)
(9.38665e-32 -1.84929e-30 0)
(2.92968e-32 -1.32755e-29 0)
(-5.79693e-32 -1.85419e-30 0)
(1.79699e-31 -1.15427e-31 0)
(2.27025e-31 -1.83644e-32 0)
(3.68296e-32 -2.03341e-33 0)
(9.08457e-33 -1.70827e-34 0)
(1.51026e-33 -1.03247e-35 0)
(2.63871e-34 -3.38175e-37 0)
(3.9126e-35 2.46392e-38 0)
(5.66769e-36 6.45381e-39 0)
(7.46811e-37 9.1134e-40 0)
(9.4651e-38 1.05352e-40 0)
(1.12302e-38 1.19334e-41 0)
(1.27996e-39 2.4111e-42 0)
(1.38787e-40 -1.30079e-43 0)
(1.4394e-41 -7.61611e-43 0)
(1.31481e-42 3.06494e-43 0)
(1.51183e-43 5.43088e-43 0)
(6.14005e-44 1.83698e-43 0)
(1.83735e-44 5.10996e-44 0)
(5.02107e-45 1.06183e-44 0)
(1.04729e-45 1.96631e-45 0)
(1.95305e-46 3.15853e-46 0)
(3.15971e-47 4.66903e-47 0)
(4.71246e-48 6.2933e-48 0)
(7.62131e-49 7.01985e-49 0)
(1.27896e-48 -7.16488e-49 0)
(1.18194e-47 -6.4263e-48 0)
(1.19666e-46 -4.80219e-47 0)
(1.25842e-45 -3.29206e-46 0)
(1.35248e-44 -2.10209e-45 0)
(1.47325e-43 -1.20142e-44 0)
(1.59056e-42 -6.56736e-44 0)
(1.68886e-41 -3.35864e-43 0)
(1.73839e-40 -2.12682e-42 0)
(1.73256e-39 -1.64102e-41 0)
(1.65562e-38 -1.58459e-40 0)
(1.52282e-37 -1.49082e-39 0)
(1.33048e-36 -1.29274e-38 0)
(1.11588e-35 -9.35265e-38 0)
(8.74169e-35 -3.86757e-37 0)
(6.5577e-34 4.20081e-36 0)
(4.40398e-33 1.4018e-34 0)
(2.81118e-32 2.3734e-33 0)
(1.37725e-31 2.89411e-32 0)
(6.30164e-31 2.68307e-31 0)
(2.36192e-31 1.77425e-30 0)
(-3.55827e-31 2.67752e-31 0)
(2.37793e-32 -1.1215e-31 0)
(2.54086e-32 -1.41849e-32 0)
(5.99806e-33 2.89445e-33 0)
(1.61573e-33 8.86916e-34 0)
(3.03689e-34 2.00279e-34 0)
(5.61442e-35 3.23301e-35 0)
(8.8173e-36 4.83554e-36 0)
(1.32315e-36 6.42525e-37 0)
(1.80157e-37 8.1452e-38 0)
(2.33759e-38 9.63979e-39 0)
(2.83307e-39 1.09525e-39 0)
(3.28302e-40 1.18342e-40 0)
(3.61013e-41 1.22708e-41 0)
(3.80436e-42 1.1579e-42 0)
(3.74296e-43 1.44655e-43 0)
(3.84457e-44 5.8544e-44 0)
(7.49104e-45 1.72301e-44 0)
(1.74465e-45 4.63915e-45 0)
(4.39444e-46 9.60349e-46 0)
(8.99938e-47 1.78144e-46 0)