/*--------------------------------*- C++ -*----------------------------------*\
| =========                 |                                                 |
| \\      /  F ield         | OpenFOAM: The Open Source CFD Toolbox           |
|  \\    /   O peration     | Version:  2.4.0                                 |
|   \\  /    A nd           | Web:      www.OpenFOAM.org                      |
|    \\/     M anipulation  |                                                 |
\*---------------------------------------------------------------------------*/
FoamFile
{
    version     2.0;
    format      ascii;
    class       volVectorField;
    location    "0.95";
    object      U;
}
// * * * * * * * * * * * * * * * * * * * * * * * * * * * * * * * * * * * * * //

dimensions      [0 1 -1 0 0 0 0];

internalField   nonuniform List<vector> 
1915
(
(6.40277e-40 -8.77432e-38 0)
(9.63921e-39 -1.74116e-38 0)
(5.15991e-39 -6.39241e-37 0)
(8.15632e-38 -1.27344e-37 0)
(3.13908e-38 -4.19983e-36 0)
(5.52241e-37 -8.37058e-37 0)
(1.74539e-37 -2.63045e-35 0)
(3.55193e-36 -5.24168e-36 0)
(8.66991e-37 -1.55384e-34 0)
(2.17335e-35 -3.10036e-35 0)
(3.57724e-36 -8.74801e-34 0)
(1.24473e-34 -1.74365e-34 0)
(1.07907e-35 -4.54076e-33 0)
(6.72094e-34 -9.08083e-34 0)
(4.97424e-36 -2.27337e-32 0)
(3.25998e-33 -4.50854e-33 0)
(-1.55951e-34 -9.81666e-32 0)
(1.4712e-32 -1.96548e-32 0)
(-1.03254e-33 -4.49265e-31 0)
(5.02013e-32 -8.51569e-32 0)
(-1.25086e-35 -4.20909e-36 0)
(-1.00893e-34 -2.63372e-35 0)
(-4.8367e-34 -1.63546e-34 0)
(-4.26869e-33 -1.18522e-34 0)
(-3.87467e-33 3.13765e-34 0)
(3.87467e-33 3.13765e-34 0)
(4.2687e-33 -1.18522e-34 0)
(4.83686e-34 -1.63541e-34 0)
(1.01097e-34 -2.63403e-35 0)
(1.31952e-35 -4.6508e-36 0)
(1.97808e-36 -6.17769e-37 0)
(2.41741e-37 -8.3511e-38 0)
(-4.19797e-42 -1.9423e-38 0)
(-2.41783e-37 -8.35234e-38 0)
(-1.97848e-36 -6.1789e-37 0)
(-1.31987e-35 -4.65193e-36 0)
(-1.01128e-34 -2.63502e-35 0)
(-4.83935e-34 -1.63625e-34 0)
(-4.27071e-33 -1.19149e-34 0)
(-3.88812e-33 3.09031e-34 0)
(3.77157e-33 2.86797e-34 0)
(3.77157e-33 -2.86797e-34 0)
(-3.88812e-33 -3.09031e-34 0)
(-4.27071e-33 1.19149e-34 0)
(-4.83935e-34 1.63625e-34 0)
(-1.01129e-34 2.635e-35 0)
(-1.32023e-35 4.65079e-36 0)
(-2.0102e-36 6.07951e-37 0)
(-4.93737e-37 -9.98445e-40 0)
(-2.03724e-36 -6.16637e-37 0)
(-1.34162e-35 -4.72336e-36 0)
(-1.02858e-34 -2.68842e-35 0)
(-4.9512e-34 -1.67648e-34 0)
(-4.35836e-33 -1.40755e-34 0)
(-4.2687e-33 1.72457e-34 0)
(-3.23812e-39 3.3655e-34 0)
(4.26867e-33 1.72449e-34 0)
(4.35814e-33 -1.40818e-34 0)
(4.93032e-34 -1.67787e-34 0)
(9.30987e-35 -2.38182e-35 0)
(-5.79648e-36 1.89848e-36 0)
(-4.11167e-35 1.42318e-35 0)
(-1.86715e-34 8.81173e-35 0)
(-1.02134e-33 6.35387e-35 0)
(-8.70416e-34 -1.68609e-34 0)
(8.70416e-34 -1.68609e-34 0)
(1.02134e-33 6.35385e-35 0)
(1.86726e-34 8.81166e-35 0)
(4.12345e-35 1.42537e-35 0)
(6.3113e-36 2.36171e-36 0)
(9.92933e-37 2.96754e-37 0)
(1.30333e-37 3.74158e-38 0)
(-2.61545e-42 8.21404e-39 0)
(-1.30358e-37 3.74203e-38 0)
(-9.93171e-37 2.968e-37 0)
(-6.31337e-36 2.36216e-36 0)
(-4.1252e-35 1.42579e-35 0)
(-1.8686e-34 8.8154e-35 0)
(-1.02235e-33 6.38394e-35 0)
(-8.76862e-34 -1.6621e-34 0)
(8.28171e-34 -1.54054e-34 0)
(8.28171e-34 1.54054e-34 0)
(-8.76862e-34 1.6621e-34 0)
(-1.02235e-33 -6.38394e-35 0)
(-1.8686e-34 -8.8154e-35 0)
(-4.12523e-35 -1.42578e-35 0)
(-6.31547e-36 -2.3617e-36 0)
(-1.01092e-36 -2.92606e-37 0)
(-2.66627e-37 4.01678e-40 0)
(-1.02594e-36 2.96302e-37 0)
(-6.43029e-36 2.39452e-36 0)
(-4.2111e-35 1.45171e-35 0)
(-1.92161e-34 9.02149e-35 0)
(-1.05714e-33 7.5694e-35 0)
(-1.02134e-33 -9.26476e-35 0)
(-2.00163e-39 -1.81031e-34 0)
(1.02132e-33 -9.26448e-35 0)
(1.05701e-33 7.57082e-35 0)
(1.91063e-34 9.00659e-35 0)
(3.66975e-35 1.06369e-35 0)
(-1.91933e-36 9.51172e-37 0)
(-1.15429e-35 6.60894e-36 0)
(-4.1629e-35 3.1911e-35 0)
(-1.77446e-34 2.06206e-35 0)
(-1.45674e-34 -6.0534e-35 0)
(1.45674e-34 -6.0534e-35 0)
(1.77446e-34 2.06205e-35 0)
(4.16311e-35 3.19103e-35 0)
(1.15699e-35 6.61853e-36 0)
(2.01707e-36 1.19418e-36 0)
(3.50383e-37 1.6581e-37 0)
(4.91592e-38 2.21307e-38 0)
(-1.16817e-42 5.14876e-39 0)
(-4.91704e-38 2.21338e-38 0)
(-3.50484e-37 1.65841e-37 0)
(-2.01793e-36 1.19448e-36 0)
(-1.15769e-35 6.62114e-36 0)
(-4.1682e-35 3.19324e-35 0)
(-1.77803e-34 2.07889e-35 0)
(-1.47742e-34 -5.93177e-35 0)
(1.33747e-34 -5.37471e-35 0)
(1.33747e-34 5.37471e-35 0)
(-1.47742e-34 5.93177e-35 0)
(-1.77803e-34 -2.07889e-35 0)
(-4.1682e-35 -3.19324e-35 0)
(-1.1577e-35 -6.62111e-36 0)
(-2.01879e-36 -1.19418e-36 0)
(-3.57558e-37 -1.63208e-37 0)
(-1.00783e-37 2.6107e-40 0)
(-3.63492e-37 1.65514e-37 0)
(-2.06181e-36 1.21341e-36 0)
(-1.18766e-35 6.76475e-36 0)
(-4.33416e-35 3.29582e-35 0)
(-1.87305e-34 2.61911e-35 0)
(-1.77446e-34 -3.41943e-35 0)
(-5.42684e-40 -6.62529e-35 0)
(1.77441e-34 -3.41923e-35 0)
(1.87276e-34 2.62015e-35 0)
(4.31109e-35 3.29007e-35 0)
(1.07072e-35 4.94144e-36 0)
(-4.58266e-37 3.47624e-37 0)
(-2.36903e-36 2.25507e-36 0)
(-6.7729e-36 9.99728e-36 0)
(-2.38364e-35 6.18587e-36 0)
(-1.90455e-35 -1.89586e-35 0)
(1.90455e-35 -1.89586e-35 0)
(2.38364e-35 6.18585e-36 0)
(6.77304e-36 9.9972e-36 0)
(2.37261e-36 2.25993e-36 0)
(4.67062e-37 4.40276e-37 0)
(8.82548e-38 6.50666e-38 0)
(1.31215e-38 9.16854e-39 0)
(-3.58619e-43 2.22543e-39 0)
(-1.31249e-38 9.17005e-39 0)
(-8.82848e-38 6.50811e-38 0)
(-4.6731e-37 4.40408e-37 0)
(-2.37456e-36 2.26106e-36 0)
(-6.78665e-36 1.00064e-35 0)
(-2.39266e-35 6.25203e-36 0)
(-1.95262e-35 -1.85092e-35 0)
(1.65827e-35 -1.66325e-35 0)
(1.65827e-35 1.66325e-35 0)
(-1.95262e-35 1.85092e-35 0)
(-2.39266e-35 -6.25203e-36 0)
(-6.78666e-36 -1.00064e-35 0)
(-2.37459e-36 -2.26104e-36 0)
(-4.6756e-37 -4.40275e-37 0)
(-9.02598e-38 -6.39412e-38 0)
(-2.6953e-38 1.16527e-40 0)
(-9.19045e-38 6.49341e-38 0)
(-4.78975e-37 4.48186e-37 0)
(-2.44926e-36 2.31693e-36 0)
(-7.16349e-36 1.03805e-35 0)
(-2.58186e-35 8.06251e-36 0)
(-2.38364e-35 -1.08381e-35 0)
(-9.60631e-41 -2.08932e-35 0)
(2.38357e-35 -1.08375e-35 0)
(2.58151e-35 8.06456e-36 0)
(7.13715e-36 1.0351e-35 0)
(2.28846e-36 1.66944e-36 0)
(-9.74542e-38 8.92669e-38 0)
(-4.32688e-37 5.53759e-37 0)
(-8.99226e-37 2.2878e-36 0)
(-2.41679e-36 1.35913e-36 0)
(-1.87181e-36 -4.33744e-36 0)
(1.87181e-36 -4.33744e-36 0)
(2.41679e-36 1.35913e-36 0)
(8.99148e-37 2.28783e-36 0)
(4.32646e-37 5.5537e-37 0)
(9.52961e-38 1.14407e-37 0)
(1.95096e-38 1.7772e-38 0)
(3.04742e-39 2.60656e-39 0)
(-9.41324e-44 6.53624e-40 0)
(-3.04829e-39 2.60703e-39 0)
(-1.95172e-38 1.77765e-38 0)
(-9.53577e-38 1.14447e-37 0)
(-4.33117e-37 5.55701e-37 0)
(-9.02318e-37 2.29043e-36 0)
(-2.43678e-36 1.37723e-36 0)
(-1.97027e-36 -4.22043e-36 0)
(1.41917e-36 -3.76397e-36 0)
(1.41917e-36 3.76397e-36 0)
(-1.97027e-36 4.22043e-36 0)
(-2.43678e-36 -1.37723e-36 0)
(-9.02319e-37 -2.29043e-36 0)
(-4.33125e-37 -5.55696e-37 0)
(-9.54201e-38 -1.14407e-37 0)
(-1.99948e-38 -1.74413e-38 0)
(-6.2711e-39 3.50322e-41 0)
(-2.03899e-38 1.77321e-38 0)
(-9.80565e-38 1.16643e-37 0)
(-4.49472e-37 5.70857e-37 0)
(-9.77628e-37 2.38674e-36 0)
(-2.77096e-36 1.81559e-36 0)
(-2.41679e-36 -2.50607e-36 0)
(-8.54293e-42 -4.80966e-36 0)
(2.41675e-36 -2.50598e-36 0)
(2.77115e-36 1.81568e-36 0)
(9.7891e-37 2.37693e-36 0)
(4.42822e-37 4.04258e-37 0)
(-1.8499e-38 2.00389e-38 0)
(-7.20898e-38 1.19808e-37 0)
(-1.03044e-37 4.74405e-37 0)
(-1.61956e-37 2.74642e-37 0)
(-1.16696e-37 -9.00463e-37 0)
(1.16697e-37 -9.00462e-37 0)
(1.61956e-37 2.74649e-37 0)
(1.03024e-37 4.74455e-37 0)
(7.19524e-38 1.20412e-37 0)
(1.74559e-38 2.60195e-38 0)
(3.81365e-39 4.20537e-39 0)
(6.20277e-40 6.38496e-40 0)
(-2.12345e-44 1.64467e-40 0)
(-6.20473e-40 6.38621e-40 0)
(-3.81533e-39 4.20653e-39 0)
(-1.74691e-38 2.60298e-38 0)
(-7.20515e-38 1.20495e-37 0)
(-1.03671e-37 4.75094e-37 0)
(-1.65871e-37 2.78937e-37 0)
(-1.34799e-37 -8.73804e-37 0)
(4.08297e-38 -7.75762e-37 0)
(4.08297e-38 7.75762e-37 0)
(-1.34799e-37 8.73804e-37 0)
(-1.65871e-37 -2.78937e-37 0)
(-1.03671e-37 -4.75094e-37 0)
(-7.20532e-38 -1.20494e-37 0)
(-1.74825e-38 -2.60194e-38 0)
(-3.91582e-39 -4.12211e-39 0)
(-1.27847e-39 8.99274e-42 0)
(-3.99847e-39 4.19508e-39 0)
(-1.80167e-38 2.65644e-38 0)
(-7.52218e-38 1.2406e-37 0)
(-1.17213e-37 4.96826e-37 0)
(-2.19721e-37 3.72691e-37 0)
(-1.61957e-37 -5.24048e-37 0)
(8.21661e-43 -1.00222e-36 0)
(1.61972e-37 -5.24043e-37 0)
(2.19919e-37 3.7259e-37 0)
(1.18542e-37 4.94029e-37 0)
(7.80626e-38 8.63009e-38 0)
(-2.52549e-39 3.21016e-39 0)
(-1.14014e-38 2.1869e-38 0)
(-1.07251e-38 8.74949e-38 0)
(1.43374e-39 4.95833e-38 0)
(3.15572e-39 -1.6666e-37 0)
(-3.15137e-39 -1.66656e-37 0)
(-1.41116e-39 4.96185e-38 0)
(1.08424e-38 8.77167e-38 0)
(1.15222e-38 2.3108e-38 0)
(3.01044e-39 5.19137e-39 0)
(6.91949e-40 8.67282e-40 0)
(1.1615e-40 1.35477e-40 0)
(-4.33011e-45 3.56891e-41 0)
(-1.16189e-40 1.35505e-40 0)
(-6.92282e-40 8.67545e-40 0)
(-3.01304e-39 5.19364e-39 0)
(-1.15412e-38 2.31261e-38 0)
(-1.09637e-38 8.78522e-38 0)
(6.99896e-40 5.05037e-38 0)
(2.0086e-41 -1.61328e-37 0)
(-1.53854e-38 -1.42662e-37 0)
(-1.53854e-38 1.42662e-37 0)
(2.00856e-41 1.61328e-37 0)
(6.99892e-40 -5.05037e-38 0)
(-1.09637e-38 -8.78522e-38 0)
(-1.15416e-38 -2.31258e-38 0)
(-3.01568e-39 -5.19134e-39 0)
(-7.11617e-40 -8.49208e-40 0)
(-2.39728e-40 1.98402e-42 0)
(-7.2744e-40 8.65007e-40 0)
(-3.11531e-39 5.30649e-39 0)
(-1.21125e-38 2.38573e-38 0)
(-1.32629e-38 9.21584e-38 0)
(-7.6905e-39 6.82848e-38 0)
(1.41126e-39 -9.76047e-38 0)
(6.07909e-43 -1.86087e-37 0)
(-1.40468e-39 -9.76068e-38 0)
(7.75147e-39 6.8242e-38 0)
(1.36565e-38 9.14989e-38 0)
(1.31915e-38 1.63235e-38 0)
(1.24475e-38 -8.92804e-40 0)
(9.19459e-40 -3.70057e-39 0)
(-6.28066e-41 1.38158e-38 0)
(2.97833e-39 8.24448e-39 0)
(2.555e-39 -2.8952e-38 0)
(-2.52582e-39 -2.89303e-38 0)
(-2.8068e-39 8.45121e-39 0)
(1.10732e-39 1.52069e-38 0)
(1.77579e-39 4.11989e-39 0)
(4.89591e-40 9.55664e-40 0)
(1.16851e-40 1.6397e-40 0)
(2.01063e-41 2.62236e-41 0)
(-8.04539e-46 7.03685e-42 0)
(-2.01135e-41 2.62295e-41 0)
(-1.16911e-40 1.64023e-40 0)
(-4.90058e-40 9.5612e-40 0)
(-1.77915e-39 4.12347e-39 0)
(-1.12831e-39 1.52331e-38 0)
(2.68689e-39 8.61897e-39 0)
(2.01839e-39 -2.79457e-38 0)
(-4.42508e-39 -2.46403e-38 0)
(-4.42508e-39 2.46403e-38 0)
(2.01839e-39 2.79457e-38 0)
(2.68689e-39 -8.61897e-39 0)
(-1.12832e-39 -1.52331e-38 0)
(-1.77921e-39 -4.12341e-39 0)
(-4.90531e-40 -9.55659e-40 0)
(-1.20332e-40 -1.60405e-40 0)
(-4.15469e-41 3.96645e-43 0)
(-1.2312e-40 1.63514e-40 0)
(-5.07723e-40 9.77867e-40 0)
(-1.87509e-39 4.2611e-39 0)
(-1.49764e-39 1.60213e-38 0)
(1.42174e-39 1.1757e-38 0)
(2.80719e-39 -1.70262e-38 0)
(1.74414e-43 -3.23776e-38 0)
(-2.80552e-39 -1.70272e-38 0)
(-1.40807e-39 1.17451e-38 0)
(1.58275e-39 1.58827e-38 0)
(2.12311e-39 2.87172e-39 0)
(2.05728e-37 -6.08581e-38 0)
(2.96677e-38 -4.61787e-38 0)
(8.16821e-39 -5.11985e-39 0)
(1.81101e-39 3.59101e-40 0)
(7.06345e-40 -4.80653e-39 0)
(-5.28695e-40 -4.70967e-39 0)
(-6.33937e-40 1.34896e-39 0)
(1.16733e-40 2.46726e-39 0)
(2.65782e-40 6.8451e-40 0)
(7.60272e-41 1.62962e-40 0)
(1.86577e-41 2.85839e-41 0)
(3.27294e-42 4.66081e-42 0)
(-1.38009e-46 1.27014e-42 0)
(-3.27417e-42 4.6619e-42 0)
(-1.86678e-41 2.85938e-41 0)
(-7.6104e-41 1.63046e-40 0)
(-2.66321e-40 6.85163e-40 0)
(-1.19966e-40 2.47202e-39 0)
(6.1668e-40 1.37922e-39 0)
(4.67454e-40 -4.53109e-39 0)
(-8.31898e-40 -3.98498e-39 0)
(-8.31898e-40 3.98498e-39 0)
(4.67454e-40 4.53109e-39 0)
(6.16679e-40 -1.37922e-39 0)
(-1.19967e-40 -2.47202e-39 0)
(-2.66332e-40 -6.85153e-40 0)
(-7.61835e-41 -1.62961e-40 0)
(-1.92347e-41 -2.79403e-41 0)
(-6.76969e-42 7.24282e-44 0)
(-1.9695e-41 2.85005e-41 0)
(-7.89746e-41 1.66896e-40 0)
(-2.81571e-40 7.09066e-40 0)
(-1.76768e-40 2.60576e-39 0)
(4.30372e-40 1.89611e-39 0)
(6.35909e-40 -2.77748e-39 0)
(3.84237e-44 -5.26998e-39 0)
(-6.35566e-40 -2.77773e-39 0)
(-4.27753e-40 1.89347e-39 0)
(1.92561e-40 2.57959e-39 0)
(3.28718e-40 4.71572e-40 0)
(2.67685e-36 3.48487e-37 0)
(3.74029e-37 -2.39806e-37 0)
(5.82849e-38 -3.6866e-38 0)
(7.00184e-39 -3.96952e-39 0)
(8.88398e-40 -1.14561e-39 0)
(-7.60725e-42 -7.64782e-40 0)
(-9.89925e-41 2.01947e-40 0)
(1.38137e-41 3.80222e-40 0)
(3.84077e-41 1.0758e-40 0)
(1.1264e-41 2.61366e-41 0)
(2.82199e-42 4.66474e-42 0)
(5.02791e-43 7.7218e-43 0)
(-1.91309e-47 2.13004e-43 0)
(-5.02948e-43 7.7238e-43 0)
(-2.8231e-42 4.66659e-42 0)
(-1.12701e-41 2.61528e-41 0)
(-3.84229e-41 1.07714e-40 0)
(-1.35513e-41 3.81302e-40 0)
(1.04438e-40 2.10275e-40 0)
(7.91256e-41 -6.9841e-40 0)
(-1.32157e-40 -6.12944e-40 0)
(-1.32157e-40 6.12944e-40 0)
(7.91256e-41 6.9841e-40 0)
(1.04438e-40 -2.10275e-40 0)
(-1.35515e-41 -3.81302e-40 0)
(-3.84246e-41 -1.07712e-40 0)
(-1.12827e-41 -2.61385e-41 0)
(-2.91147e-42 -4.55693e-42 0)
(-1.04076e-42 1.22567e-44 0)
(-2.98301e-42 4.65077e-42 0)
(-1.17105e-41 2.67888e-41 0)
(-4.07204e-41 1.11603e-40 0)
(-2.18995e-41 4.02669e-40 0)
(7.78869e-41 2.90969e-40 0)
(1.07348e-40 -4.30257e-40 0)
(7.25172e-45 -8.14886e-40 0)
(-1.07287e-40 -4.30311e-40 0)
(-7.7439e-41 2.90458e-40 0)
(2.45215e-41 3.98116e-40 0)
(4.85988e-41 7.34303e-41 0)
(1.71339e-33 -1.49427e-30 0)
(2.47714e-31 -3.0104e-31 0)
(2.72039e-32 -1.29405e-29 0)
(-5.23893e-32 -1.74246e-30 0)
(2.28598e-31 1.71762e-30 0)
(-3.26673e-31 2.48807e-31 0)
(2.72428e-32 1.48939e-29 0)
(1.06531e-32 2.04104e-30 0)
(2.21132e-33 1.85259e-30 0)
(2.74532e-31 3.82667e-31 0)
(1.41384e-34 1.23872e-30 0)
(-5.41545e-32 2.74727e-31 0)
(7.59951e-35 4.09265e-30 0)
(-5.99766e-31 8.58945e-31 0)
(1.20655e-34 2.89066e-29 0)
(-9.899e-31 4.40046e-30 0)
(3.6247e-36 5.25291e-29 0)
(-2.96426e-32 7.60129e-30 0)
(-1.20268e-34 3.0393e-29 0)
(9.86027e-31 4.60088e-30 0)
(6.37402e-31 8.80181e-31 0)
(1.08205e-31 1.93209e-31 0)
(1.78221e-32 2.97032e-32 0)
(2.28191e-33 4.72287e-33 0)
(2.84362e-34 1.47591e-33 0)
(1.99152e-35 7.01465e-33 0)
(-1.06292e-34 5.58359e-32 0)
(-9.75239e-34 3.65511e-31 0)
(-6.59313e-33 2.68456e-30 0)
(-4.16973e-32 1.22447e-29 0)
(-3.59808e-32 9.51883e-29 0)
(3.59813e-32 9.51883e-29 0)
(4.1681e-32 1.22447e-29 0)
(6.12451e-33 2.68416e-30 0)
(-6.78002e-33 3.63282e-31 0)
(-9.42374e-32 4.25287e-32 0)
(-7.92595e-31 6.93744e-33 0)
(-9.4346e-32 1.41693e-32 0)
(-7.75526e-33 2.32571e-33 0)
(-4.66744e-34 4.08312e-34 0)
(-3.49093e-36 6.19845e-35 0)
(8.40331e-35 5.10297e-35 0)
(3.81511e-34 1.84667e-34 0)
(4.56475e-32 -3.73155e-32 0)
(9.55985e-33 -4.44801e-33 0)
(1.47555e-33 -5.07338e-34 0)
(2.24867e-34 -5.59284e-35 0)
(-1.32849e-32 -1.8289e-31 0)
(-2.7043e-33 -1.51802e-32 0)
(-4.31239e-34 -9.11777e-34 0)
(-6.04128e-35 -2.76911e-35 0)
(-8.23381e-32 2.75329e-32 0)
(-1.63441e-32 2.37729e-33 0)
(-2.53375e-33 1.4724e-34 0)
(-3.50028e-34 4.39155e-36 0)
(8.61885e-34 2.18131e-31 0)
(3.49806e-34 1.8365e-32 0)
(7.96571e-35 1.1261e-33 0)
(2.05357e-35 3.64814e-35 0)
(5.85699e-32 5.21387e-32 0)
(1.24586e-32 5.51567e-33 0)
(1.99737e-33 5.01387e-34 0)
(3.07248e-34 4.28417e-35 0)
(-1.44181e-32 5.1432e-32 0)
(-3.40449e-33 7.57841e-33 0)
(-6.01004e-34 1.06483e-33 0)
(-9.81557e-35 1.38199e-34 0)
(-1.36821e-31 1.28971e-31 0)
(-2.9885e-32 1.53831e-32 0)
(-4.92466e-33 1.69497e-33 0)
(-7.68072e-34 1.80439e-34 0)
(-2.18049e-31 5.07256e-31 0)
(-4.69818e-32 4.62123e-32 0)
(-7.63422e-33 3.27054e-33 0)
(-1.18088e-33 1.70218e-34 0)
(-6.42209e-33 8.38697e-31 0)
(-1.37384e-33 7.25649e-32 0)
(-2.21555e-34 4.55794e-33 0)
(-3.41045e-35 1.52554e-34 0)
(2.17084e-31 5.27741e-31 0)
(4.67717e-32 4.7794e-32 0)
(7.59967e-33 3.33794e-33 0)
(1.1756e-33 1.67055e-34 0)
(1.45422e-31 1.3052e-31 0)
(3.17926e-32 1.53249e-32 0)
(5.24304e-33 1.65014e-33 0)
(8.18416e-34 1.71411e-34 0)
(2.83868e-32 3.64864e-32 0)
(6.59307e-33 5.42412e-33 0)
(1.14957e-33 7.67336e-34 0)
(1.85973e-34 1.0008e-34 0)
(4.91046e-33 6.3457e-33 0)
(1.2106e-33 1.05548e-33 0)
(2.20914e-34 1.63929e-34 0)
(3.71714e-35 2.29334e-35 0)
(6.524e-34 1.11284e-33 0)
(1.67841e-34 2.01792e-34 0)
(3.15667e-35 3.36966e-35 0)
(5.45376e-36 4.99413e-36 0)
(-1.70194e-35 4.10186e-34 0)
(-1.04763e-35 9.61623e-35 0)
(-4.72236e-36 1.80925e-35 0)
(-1.05669e-36 3.07722e-36 0)
(-9.06908e-34 2.0346e-33 0)
(-2.87606e-34 5.07101e-34 0)
(-7.70797e-35 9.51471e-35 0)
(-1.51445e-35 1.62985e-35 0)
(-7.22962e-33 1.53898e-32 0)
(-2.22286e-33 3.62112e-33 0)
(-5.70866e-34 6.44915e-34 0)
(-1.08588e-34 1.05952e-34 0)
(-5.64069e-32 9.65259e-32 0)
(-1.63627e-32 2.06357e-32 0)
(-4.00522e-33 3.39408e-33 0)
(-7.30685e-34 5.195e-34 0)
(-3.30638e-31 6.32257e-31 0)
(-9.10513e-32 1.19374e-31 0)
(-2.09422e-32 1.74454e-32 0)
(-3.64339e-33 2.41934e-33 0)
(-1.95407e-30 2.70059e-30 0)
(-4.59996e-31 3.89179e-31 0)
(-9.94425e-32 4.25353e-32 0)
(-1.63262e-32 4.05658e-33 0)
(-1.67343e-30 1.47241e-29 0)
(-3.83345e-31 1.67731e-30 0)
(-8.20041e-32 1.45886e-31 0)
(-1.33186e-32 9.2996e-33 0)
(1.67343e-30 1.47241e-29 0)
(3.83344e-31 1.67731e-30 0)
(8.20028e-32 1.45888e-31 0)
(1.33182e-32 9.3002e-33 0)
(1.95405e-30 2.70065e-30 0)
(4.59982e-31 3.89247e-31 0)
(9.94313e-32 4.25555e-32 0)
(1.6323e-32 4.0615e-33 0)
(3.30178e-31 6.32675e-31 0)
(9.08552e-32 1.19901e-31 0)
(2.08426e-32 1.7593e-32 0)
(3.61769e-33 2.4536e-33 0)
(4.87794e-32 9.88767e-32 0)
(1.39329e-32 2.35689e-32 0)
(3.11083e-33 4.17107e-33 0)
(5.29477e-34 6.88921e-34 0)
(-8.57207e-32 2.9426e-32 0)
(-2.04752e-32 2.05681e-32 0)
(-5.51656e-33 4.49362e-33 0)
(-1.06794e-33 8.96747e-34 0)
(-7.82844e-31 2.01461e-33 0)
(-1.34371e-31 5.03346e-34 0)
(-3.34132e-32 9.51551e-35 0)
(-5.7882e-33 1.88187e-35 0)
(-9.28488e-32 -1.37783e-32 0)
(-2.26641e-32 -1.68783e-32 0)
(-6.07532e-33 -3.82944e-33 0)
(-1.16557e-33 -7.64926e-34 0)
(-7.61503e-33 -2.31951e-33 0)
(-2.41909e-33 -2.91551e-33 0)
(-8.66578e-34 -7.24934e-34 0)
(-1.13972e-34 3.07626e-35 0)
(-4.47959e-34 -4.029e-34 0)
(-1.36716e-34 -4.58581e-34 0)
(1.37675e-34 2.14924e-34 0)
(8.09527e-34 1.45909e-33 0)
(6.36304e-35 2.05033e-35 0)
(4.20213e-34 3.79372e-34 0)
(1.86542e-33 2.49038e-33 0)
(7.38535e-33 1.08363e-32 0)
(5.3728e-34 3.22877e-34 0)
(3.10159e-33 2.08694e-33 0)
(1.45993e-32 1.23662e-32 0)
(6.58714e-32 5.68811e-32 0)
(2.58592e-33 1.40645e-33 0)
(1.60467e-32 9.23936e-33 0)
(8.46275e-32 5.77188e-32 0)
(4.44379e-31 2.81097e-31 0)
(2.95367e-35 -5.15267e-36 0)
(3.52442e-36 -2.15775e-37 0)
(3.89179e-37 -7.96502e-39 0)
(4.13789e-38 -2.18752e-40 0)
(4.17001e-39 -8.72555e-41 0)
(3.93851e-40 -7.72588e-41 0)
(2.57611e-41 2.11078e-41 0)
(4.45193e-42 3.98519e-41 0)
(4.15762e-42 1.14836e-41 0)
(1.18124e-42 2.86375e-42 0)
(2.96348e-43 5.21889e-43 0)
(5.32237e-44 8.82099e-44 0)
(9.38214e-48 2.47356e-44 0)
(-5.30896e-44 8.8235e-44 0)
(-2.94556e-43 5.22116e-43 0)
(-1.15825e-42 2.86569e-42 0)
(-3.87651e-42 1.14987e-41 0)
(-1.14634e-42 3.99623e-41 0)
(1.13948e-41 2.18148e-41 0)
(8.61814e-42 -7.3175e-41 0)
(-1.40019e-41 -6.41068e-41 0)
(-1.40019e-41 6.41068e-41 0)
(8.61814e-42 7.3175e-41 0)
(1.13947e-41 -2.18148e-41 0)
(-1.14636e-42 -3.99623e-41 0)
(-3.87669e-42 -1.14985e-41 0)
(-1.1596e-42 -2.864e-42 0)
(-3.03987e-43 -5.09372e-43 0)
(-1.0993e-43 1.44265e-45 0)
(-3.11603e-43 5.20247e-43 0)
(-1.20468e-42 2.93802e-42 0)
(-4.11554e-42 1.1932e-41 0)
(-1.99947e-42 4.2292e-41 0)
(8.74017e-42 3.03487e-41 0)
(1.16987e-41 -4.53215e-41 0)
(8.95788e-46 -8.56533e-41 0)
(-1.16913e-41 -4.53289e-41 0)
(-8.68787e-42 3.0283e-41 0)
(2.30413e-42 4.17584e-41 0)
(5.0679e-42 7.71663e-42 0)
(-6.80538e-36 2.57684e-36 0)
(-6.64041e-37 5.25494e-37 0)
(-5.54174e-38 6.14983e-38 0)
(-3.91636e-39 5.94883e-39 0)
(-1.95528e-40 5.15057e-40 0)
(-4.46195e-43 3.54855e-41 0)
(8.12584e-43 5.25406e-42 0)
(4.01795e-43 3.98239e-42 0)
(3.59017e-43 1.10827e-42 0)
(1.01164e-43 2.7614e-43 0)
(2.54684e-44 5.06768e-44 0)
(4.61137e-45 8.62195e-45 0)
(3.57448e-48 2.43226e-45 0)
(-4.57007e-45 8.62192e-45 0)
(-2.50263e-44 5.06437e-44 0)
(-9.6723e-44 2.75327e-43 0)
(-3.18734e-43 1.09365e-42 0)
(-8.61646e-44 3.75502e-42 0)
(9.63194e-43 2.03299e-42 0)
(7.26633e-43 -6.87181e-42 0)
(-1.1718e-42 -6.01134e-42 0)
(-1.1718e-42 6.01134e-42 0)
(7.26633e-43 6.87181e-42 0)
(9.63194e-43 -2.03299e-42 0)
(-8.61665e-44 -3.75502e-42 0)
(-3.1875e-43 -1.09363e-42 0)
(-9.68421e-44 -2.7516e-43 0)
(-2.58497e-44 -4.93902e-44 0)
(-9.47134e-45 1.42449e-46 0)
(-2.65127e-44 5.0459e-44 0)
(-1.00715e-43 2.82383e-43 0)
(-3.38974e-43 1.13561e-42 0)
(-1.56938e-43 3.97834e-42 0)
(7.46679e-43 2.84162e-42 0)
(9.8904e-43 -4.26967e-42 0)
(8.78672e-47 -8.06046e-42 0)
(-9.88333e-43 -4.2705e-42 0)
(-7.41874e-43 2.83459e-42 0)
(1.8454e-43 3.92407e-42 0)
(4.24829e-43 7.29882e-43 0)
(-3.95928e-35 -5.11363e-37 0)
(-3.99666e-36 -1.00265e-37 0)
(-3.66774e-37 -1.23301e-38 0)
(-3.09049e-38 -1.27411e-39 0)
(-2.34319e-39 -1.23776e-40 0)
(-1.52442e-40 -1.18365e-41 0)
(-7.59922e-42 -8.20659e-43 0)
(-7.38598e-44 2.35194e-43 0)
(6.90368e-44 8.72605e-44 0)
(1.58337e-44 2.34906e-44 0)
(3.08022e-45 4.4324e-45 0)
(4.9292e-46 7.67123e-46 0)
(9.39649e-48 2.1908e-46 0)
(-3.93283e-46 7.70453e-46 0)
(-2.14114e-45 4.47612e-45 0)
(-8.19921e-45 2.40488e-44 0)
(-2.67362e-44 9.42202e-44 0)
(-6.90036e-45 3.19472e-43 0)
(8.15893e-44 1.71596e-43 0)
(6.14095e-44 -5.84406e-43 0)
(-9.88903e-44 -5.10517e-43 0)
(-9.88903e-44 5.10517e-43 0)
(6.14095e-44 5.84406e-43 0)
(8.15893e-44 -1.71596e-43 0)
(-6.90053e-45 -3.19471e-43 0)
(-2.67376e-44 -9.42184e-44 0)
(-8.20962e-45 -2.40336e-44 0)
(-2.21274e-45 -4.36305e-45 0)
(-8.17112e-46 1.29356e-47 0)
(-2.27024e-45 4.45932e-45 0)
(-8.54317e-45 2.46778e-44 0)
(-2.84645e-44 9.79204e-44 0)
(-1.28781e-44 3.38921e-43 0)
(6.35269e-44 2.40901e-43 0)
(8.38018e-44 -3.64399e-43 0)
(8.31806e-48 -6.8702e-43 0)
(-8.37362e-44 -3.64481e-43 0)
(-6.30906e-44 2.40225e-43 0)
(1.53489e-44 3.33952e-43 0)
(3.62272e-44 6.23511e-44 0)
(3.56624e-36 -2.88791e-36 0)
(5.69634e-37 -6.01732e-37 0)
(7.74157e-38 -7.05985e-38 0)
(9.96417e-39 -6.82921e-39 0)
(1.16663e-39 -6.03495e-40 0)
(1.29962e-40 -4.97482e-41 0)
(1.35502e-41 -3.85595e-42 0)
(1.35387e-42 -2.5748e-43 0)
(1.30547e-43 -1.1632e-44 0)
(1.238e-44 8.04486e-46 0)
(1.19987e-45 3.14386e-46 0)
(1.19002e-46 6.3568e-47 0)
(7.08022e-48 1.91506e-47 0)
(-3.16712e-47 6.74816e-47 0)
(-1.73669e-46 3.89795e-46 0)
(-6.5887e-46 2.07939e-45 0)
(-2.127e-45 8.08707e-45 0)
(-5.31979e-46 2.71724e-44 0)
(6.51583e-45 1.45017e-44 0)
(4.8927e-45 -4.96839e-44 0)
(-7.88535e-45 -4.33529e-44 0)
(-7.88535e-45 4.33529e-44 0)
(4.8927e-45 4.96839e-44 0)
(6.51583e-45 -1.45017e-44 0)
(-5.31993e-46 -2.71724e-44 0)
(-2.12712e-45 -8.0869e-45 0)
(-6.59737e-46 -2.07805e-45 0)
(-1.79609e-46 -3.79839e-46 0)
(-6.68566e-47 1.14274e-48 0)
(-1.84341e-46 3.88308e-46 0)
(-6.8698e-46 2.13441e-45 0)
(-2.26692e-45 8.40889e-45 0)
(-1.01052e-45 2.88511e-44 0)
(5.08657e-45 2.04334e-44 0)
(6.69542e-45 -3.10556e-44 0)
(7.36158e-49 -5.85018e-44 0)
(-6.68973e-45 -3.10635e-44 0)
(-5.04954e-45 2.03707e-44 0)
(1.21705e-45 2.84044e-44 0)
(2.91478e-45 5.32749e-45 0)
(3.83986e-35 3.46402e-36 0)
(4.51149e-36 3.02015e-37 0)
(4.87453e-37 2.97741e-38 0)
(5.12036e-38 3.00013e-39 0)
(5.07643e-39 3.01381e-40 0)
(4.87499e-40 2.913e-41 0)
(4.4746e-41 2.72925e-42 0)
(3.97931e-42 2.47471e-43 0)
(3.40924e-43 2.19962e-44 0)
(2.83681e-44 1.96114e-45 0)
(2.29079e-45 1.77887e-46 0)
(1.80596e-46 1.70868e-47 0)
(1.35161e-47 2.48804e-48 0)
(-1.57856e-48 5.64461e-48 0)
(-1.37464e-47 3.20051e-47 0)
(-5.20916e-47 1.69373e-46 0)
(-1.66879e-46 6.53082e-46 0)
(-4.08007e-47 2.17433e-45 0)
(5.12047e-46 1.15318e-45 0)
(3.83721e-46 -3.9742e-45 0)
(-6.19161e-46 -3.46398e-45 0)
(-6.19161e-46 3.46398e-45 0)
(3.83721e-46 3.9742e-45 0)
(5.12047e-46 -1.15318e-45 0)
(-4.08019e-47 -2.17433e-45 0)
(-1.66889e-46 -6.53068e-46 0)
(-5.21664e-47 -1.69261e-46 0)
(-1.42925e-47 -3.11722e-47 0)
(-5.34964e-48 9.54583e-50 0)
(-1.46724e-47 3.1876e-47 0)
(-5.43439e-47 1.73914e-46 0)
(-1.77993e-46 6.79463e-46 0)
(-7.85466e-47 2.3108e-45 0)
(4.00377e-46 1.6306e-45 0)
(5.26339e-46 -2.49051e-45 0)
(6.26709e-50 -4.68726e-45 0)
(-5.2586e-46 -2.49121e-45 0)
(-3.97319e-46 1.62516e-45 0)
(9.53744e-47 2.27318e-45 0)
(2.31044e-46 4.27899e-46 0)
(-1.29615e-35 1.60876e-35 0)
(-1.57344e-36 1.69602e-36 0)
(-1.74939e-37 1.76005e-37 0)
(-1.86937e-38 1.73558e-38 0)
(-1.87943e-39 1.65963e-39 0)
(-1.8185e-40 1.51786e-40 0)
(-1.67781e-41 1.34412e-41 0)
(-1.49387e-42 1.14606e-42 0)
(-1.27839e-43 9.47904e-44 0)
(-1.05866e-44 7.59137e-45 0)
(-8.46725e-46 5.91627e-46 0)
(-6.56669e-47 4.49095e-47 0)
(-4.96414e-48 3.3976e-48 0)
(-5.61574e-49 6.82899e-49 0)
(-1.07914e-48 2.58048e-48 0)
(-3.94823e-48 1.34977e-47 0)
(-1.25466e-47 5.17522e-47 0)
(-3.00362e-48 1.71065e-46 0)
(3.85397e-47 9.02525e-47 0)
(2.88247e-47 -3.12555e-46 0)
(-4.65736e-47 -2.72177e-46 0)
(-4.65736e-47 2.72177e-46 0)
(2.88247e-47 3.12555e-46 0)
(3.85397e-47 -9.02524e-47 0)
(-3.0037e-48 -1.71065e-46 0)
(-1.25472e-47 -5.1751e-47 0)
(-3.95182e-48 -1.34875e-47 0)
(-1.0897e-48 -2.49722e-48 0)
(-4.10124e-49 7.73605e-51 0)
(-1.11893e-48 2.55407e-48 0)
(-4.11856e-48 1.38617e-47 0)
(-1.33923e-47 5.38639e-47 0)
(-5.85583e-48 1.81925e-46 0)
(3.01785e-47 1.28002e-46 0)
(3.96294e-47 -1.96253e-46 0)
(5.0703e-51 -3.69113e-46 0)
(-3.95912e-47 -1.96313e-46 0)
(-2.99382e-47 1.27546e-46 0)
(7.16267e-48 1.78842e-46 0)
(1.75171e-47 3.37857e-47 0)
(-9.72635e-35 1.80947e-35 0)
(-1.14899e-35 1.76026e-36 0)
(-1.24716e-36 1.75646e-37 0)
(-1.31066e-37 1.70029e-38 0)
(-1.29893e-38 1.61006e-39 0)
(-1.24393e-39 1.463e-40 0)
(-1.13782e-40 1.28892e-41 0)
(-1.00684e-41 1.09381e-42 0)
(-8.57431e-43 9.00504e-44 0)
(-7.07879e-44 7.17397e-45 0)
(-5.65284e-45 5.55575e-46 0)
(-4.38593e-46 4.17908e-47 0)
(-3.30382e-47 3.06761e-48 0)
(-2.43777e-48 2.52616e-49 0)
(-2.51291e-49 2.11888e-49 0)
(-3.04141e-49 1.03069e-48 0)
(-9.23671e-49 3.92546e-48 0)
(-2.17052e-49 1.28845e-47 0)
(2.83683e-48 6.76329e-48 0)
(2.11814e-48 -2.35335e-47 0)
(-3.42652e-48 -2.04751e-47 0)
(-3.42652e-48 2.04751e-47 0)
(2.11814e-48 2.35335e-47 0)
(2.83684e-48 -6.76329e-48 0)
(-2.17004e-49 -1.28845e-47 0)
(-9.22908e-49 -3.92531e-48 0)
(-2.92498e-49 -1.02896e-48 0)
(-8.10286e-50 -1.91541e-49 0)
(-3.06257e-50 6.00646e-52 0)
(-8.32171e-50 1.9594e-49 0)
(-3.04939e-49 1.05778e-48 0)
(-9.85661e-49 4.08724e-48 0)
(-4.27723e-49 1.37118e-47 0)
(2.22392e-48 9.62e-48 0)
(2.91787e-48 -1.48056e-47 0)
(3.95981e-52 -2.78276e-47 0)
(-2.91492e-48 -1.48104e-47 0)
(-2.20558e-48 9.58363e-48 0)
(5.2646e-49 1.34708e-47 0)
(1.29854e-48 2.55308e-48 0)
(-1.48354e-34 2.07065e-36 0)
(-1.74305e-35 -6.2162e-37 0)
(-1.88221e-36 -1.00819e-37 0)
(-1.97037e-37 -1.126e-38 0)
(-1.94563e-38 -1.12051e-39 0)
(-1.85782e-39 -1.03739e-40 0)
(-1.69474e-40 -9.21274e-42 0)
(-1.49626e-41 -7.85283e-43 0)
(-1.27156e-42 -6.48375e-44 0)
(-1.04789e-43 -5.17702e-45 0)
(-8.35423e-45 -4.01601e-46 0)
(-6.47252e-46 -3.02438e-47 0)
(-4.86886e-47 -2.21714e-48 0)
(-3.56757e-48 -1.55734e-49 0)
(-2.59979e-49 3.67192e-51 0)
(-3.8579e-50 7.58464e-50 0)
(-6.67834e-50 2.90739e-49 0)
(-1.52338e-50 9.48936e-49 0)
(2.01728e-49 4.9593e-49 0)
(1.50379e-49 -1.73268e-48 0)
(-2.43555e-49 -1.50634e-48 0)
(-2.43555e-49 1.50634e-48 0)
(1.50379e-49 1.73268e-48 0)
(2.01733e-49 -4.9593e-49 0)
(-1.51546e-50 -9.48938e-49 0)
(-6.55859e-50 -2.90782e-49 0)
(-2.09109e-50 -7.65423e-50 0)
(-5.81872e-51 -1.43078e-50 0)
(-2.20822e-51 4.52568e-53 0)
(-5.97691e-51 1.46385e-50 0)
(-2.18073e-50 7.87013e-50 0)
(-7.00862e-50 3.02872e-49 0)
(-3.01923e-50 1.01041e-48 0)
(1.58319e-49 7.07196e-49 0)
(2.07552e-49 -1.09181e-48 0)
(2.9701e-53 -2.05101e-48 0)
(-2.07333e-49 -1.09219e-48 0)
(-1.56973e-49 7.04389e-49 0)
(3.7378e-50 9.92101e-49 0)
(9.2913e-50 1.88607e-49 0)
(-4.26384e-36 -1.2584e-35 0)
(-4.99239e-37 -2.74565e-36 0)
(-5.37288e-38 -3.45257e-37 0)
(-5.60984e-39 -3.61403e-38 0)
(-5.5257e-40 -3.51797e-39 0)
(-5.26555e-41 -3.22819e-40 0)
(-4.79415e-42 -2.85457e-41 0)
(-4.22575e-43 -2.42639e-42 0)
(-3.58569e-44 -1.99919e-43 0)
(-2.951e-45 -1.59339e-44 0)
(-2.34972e-46 -1.23413e-45 0)
(-1.81844e-47 -9.28104e-47 0)
(-1.36647e-48 -6.79675e-48 0)
(-1.00076e-49 -4.84439e-49 0)
(-7.5191e-51 -3.26516e-50 0)
(-1.95229e-51 3.21374e-51 0)
(-4.58588e-51 2.06517e-50 0)
(-1.03788e-51 6.75026e-50 0)
(1.40102e-50 3.51338e-50 0)
(1.04287e-50 -1.23234e-49 0)
(-1.6908e-50 -1.07058e-49 0)
(-1.6908e-50 1.07058e-49 0)
(1.04287e-50 1.23235e-49 0)
(1.40103e-50 -3.51341e-50 0)
(-1.03571e-51 -6.75124e-50 0)
(-4.55257e-51 -2.08032e-50 0)
(-1.45897e-51 -5.49816e-51 0)
(-4.07375e-52 -1.03176e-51 0)
(-1.55119e-52 3.1563e-54 0)
(-4.18491e-52 1.05583e-51 0)
(-1.52189e-51 5.65428e-51 0)
(-4.86727e-51 2.16746e-50 0)
(-2.08346e-51 7.19236e-50 0)
(1.10053e-50 5.0224e-50 0)
(1.44177e-50 -7.77733e-50 0)
(2.17552e-54 -1.46025e-49 0)
(-1.44019e-50 -7.78011e-50 0)
(-1.09092e-50 5.00155e-50 0)
(2.5925e-51 7.05834e-50 0)
(6.49038e-51 1.34577e-50 0)
(1.47699e-34 8.85352e-37 0)
(1.73546e-35 -7.84811e-37 0)
(1.87412e-36 -1.19389e-37 0)
(1.962e-37 -1.31495e-38 0)
(1.93747e-38 -1.30303e-39 0)
(1.85011e-39 -1.20474e-40 0)
(1.68777e-40 -1.06946e-41 0)
(1.49016e-41 -9.11484e-43 0)
(1.26642e-42 -7.52563e-44 0)
(1.04369e-43 -6.00905e-45 0)
(8.32092e-45 -4.6617e-46 0)
(6.44689e-46 -3.51093e-47 0)
(4.84968e-47 -2.57459e-48 0)
(3.55253e-48 -1.83789e-49 0)
(2.5334e-49 -1.27258e-50 0)
(1.753e-50 -4.85009e-52 0)
(8.89973e-52 1.39284e-51 0)
(1.09121e-53 4.68653e-51 0)
(9.5023e-52 2.43445e-51 0)
(7.02568e-52 -8.55749e-51 0)
(-1.14001e-51 -7.43069e-51 0)
(-1.13978e-51 7.43139e-51 0)
(7.02471e-52 8.5621e-51 0)
(9.44814e-52 -2.43034e-51 0)
(-6.89143e-53 -4.68974e-51 0)
(-3.06977e-52 -1.45287e-51 0)
(-9.8676e-53 -3.85405e-52 0)
(-2.78039e-53 -7.07059e-53 0)
(-1.07343e-53 -1.95288e-54 0)
(-2.83009e-53 7.355e-53 0)
(-1.03036e-52 3.9598e-52 0)
(-3.28119e-52 1.51411e-51 0)
(-1.39591e-52 5.00146e-51 0)
(7.42632e-52 3.48575e-51 0)
(9.72449e-52 -5.41101e-51 0)
(4.43436e-55 -1.01523e-50 0)
(-9.71553e-52 -5.40856e-51 0)
(-7.36456e-52 3.46747e-51 0)
(1.74638e-52 4.90327e-51 0)
(4.4019e-52 9.36671e-52 0)
(1.03723e-34 1.68041e-35 0)
(1.2261e-35 1.6111e-36 0)
(1.33166e-36 1.59482e-37 0)
(1.40016e-37 1.53709e-38 0)
(1.38827e-38 1.45169e-39 0)
(1.33002e-39 1.31648e-40 0)
(1.21701e-40 1.15794e-41 0)
(1.07727e-41 9.81156e-43 0)
(9.177e-43 8.06601e-44 0)
(7.57855e-44 6.41653e-45 0)
(6.05361e-45 4.96172e-46 0)
(4.69815e-46 3.72579e-47 0)
(3.53973e-47 2.72488e-48 0)
(2.59663e-48 1.94051e-49 0)
(1.85432e-49 1.34862e-50 0)
(1.29095e-50 9.31491e-52 0)
(8.57862e-52 1.30359e-52 0)
(5.85646e-53 3.1284e-52 0)
(6.90571e-53 2.08109e-52 0)
(4.42821e-53 -5.38382e-52 0)