/*--------------------------------*- C++ -*----------------------------------*\
| =========                 |                                                 |
| \\      /  F ield         | OpenFOAM: The Open Source CFD Toolbox           |
|  \\    /   O peration     | Version:  2.4.0                                 |
|   \\  /    A nd           | Web:      www.OpenFOAM.org                      |
|    \\/     M anipulation  |                                                 |
\*---------------------------------------------------------------------------*/
FoamFile
{
    version     2.0;
    format      ascii;
    class       surfaceScalarField;
    location    "0.5";
    object      phi;
}
// * * * * * * * * * * * * * * * * * * * * * * * * * * * * * * * * * * * * * //

dimensions      [0 3 -1 0 0 0 0];

internalField   nonuniform List<scalar> 
3731
(
2.77361e-45
-5.49039e-43
-6.51723e-44
3.27688e-44
-5.25345e-42
-6.20885e-43
3.26538e-43
-4.84621e-41
-5.6843e-42
3.05794e-42
-4.13811e-40
-4.8372e-41
2.76654e-41
-3.44782e-39
-3.98908e-40
2.29195e-40
-2.54901e-38
-2.94986e-39
1.85627e-39
-1.91084e-37
-2.1695e-38
1.29102e-38
-1.14099e-36
-1.31023e-37
9.13998e-38
-7.96248e-36
-8.63916e-37
4.44043e-37
-3.06611e-35
-3.50166e-36
-1.64692e-39
-2.86202e-41
-9.93015e-39
-2.03546e-40
-1.40264e-38
-2.03681e-39
-4.34202e-37
-1.67923e-39
1.42621e-46
3.95041e-39
4.34202e-37
3.95041e-39
1.40264e-38
-1.67923e-39
9.93104e-39
-2.0368e-39
1.64769e-39
-2.03527e-40
1.45709e-40
-2.81095e-41
1.67474e-41
-2.46768e-42
1.27728e-42
-2.48787e-43
-1.27735e-42
-3.94784e-44
-1.67482e-41
-2.48796e-43
-1.45719e-40
-2.46781e-42
-1.64782e-39
-2.81112e-41
-9.93246e-39
-2.03547e-40
-1.40433e-38
-2.03705e-39
-4.34349e-37
-1.68172e-39
-1.66458e-39
3.92205e-39
4.24124e-37
3.74439e-39
-1.66458e-39
-3.74439e-39
-4.34349e-37
-3.92205e-39
-1.40433e-38
1.68172e-39
-9.93246e-39
2.03705e-39
-1.64784e-39
2.03546e-40
-1.45852e-40
2.81095e-41
-1.81766e-41
2.44783e-42
-1.82884e-41
-1.53459e-45
-1.47128e-40
-2.46602e-42
-1.66317e-39
-2.83368e-41
-1.00613e-38
-2.05765e-40
-1.55438e-38
-2.06267e-39
-4.42616e-37
-1.85689e-39
-5.61281e-39
2.09126e-39
5.61269e-39
4.13032e-39
4.42614e-37
2.09125e-39
1.55276e-38
-1.85712e-39
9.9678e-39
-2.06441e-39
-2.19332e-40
-3.47861e-40
3.01078e-41
-2.11987e-39
2.71294e-40
-1.81428e-38
2.62622e-39
-3.11681e-38
2.14496e-39
6.70014e-47
-5.08086e-39
3.11681e-38
-5.08086e-39
1.81428e-38
2.14496e-39
2.12014e-39
2.62621e-39
3.48869e-40
2.71466e-40
3.49045e-41
3.49273e-41
4.04554e-42
2.98027e-42
3.2681e-43
2.84949e-43
-3.26828e-43
4.3909e-44
-4.04576e-42
2.84959e-43
-3.49072e-41
2.9804e-42
-3.48903e-40
3.49291e-41
-2.1205e-39
2.71488e-40
-1.81469e-38
2.6265e-39
-3.12034e-38
2.14797e-39
-3.52952e-40
-5.04564e-39
2.90127e-38
-4.80639e-39
-3.52952e-40
4.80639e-39
-3.12034e-38
5.04564e-39
-1.81469e-38
-2.14797e-39
-2.1205e-39
-2.6265e-39
-3.48906e-40
-2.71488e-40
-3.49417e-41
-3.49273e-41
-4.4119e-42
-2.9582e-42
-4.4407e-42
1.65285e-45
-3.52681e-41
2.97848e-42
-3.52591e-40
3.51884e-41
-2.15133e-39
2.74183e-40
-1.84605e-38
2.65842e-39
-3.29706e-38
2.38422e-39
-1.63403e-38
-2.6939e-39
1.63403e-38
-5.32285e-39
3.29702e-38
-2.69388e-39
1.84561e-38
2.38437e-39
2.12369e-39
2.65716e-39
2.14009e-40
-6.66596e-41
7.2195e-42
-2.93079e-40
6.30661e-41
-1.85999e-39
5.14274e-40
-3.07416e-39
4.02826e-40
-2.62621e-48
-9.89505e-40
3.07416e-39
-9.89505e-40
1.85999e-39
4.02826e-40
2.931e-40
5.14273e-40
6.65146e-41
6.31086e-41
7.58209e-42
8.44302e-42
9.87042e-43
7.73079e-43
8.44703e-44
7.57183e-44
-8.44755e-44
1.21323e-44
-9.87108e-43
7.5721e-44
-7.58287e-42
7.73116e-43
-6.6524e-41
8.44352e-42
-2.93195e-40
6.31148e-41
-1.86099e-39
5.14348e-40
-3.08184e-39
4.03605e-40
-6.75118e-41
-9.80986e-40
2.77338e-39
-9.25617e-40
-6.75118e-41
9.25617e-40
-3.08184e-39
9.80986e-40
-1.86099e-39
-4.03605e-40
-2.93195e-40
-5.14348e-40
-6.65248e-41
-6.31147e-41
-7.59235e-42
-8.44302e-42
-1.08242e-42
-7.66979e-43
-1.09027e-42
4.6367e-46
-7.67669e-42
7.72576e-43
-6.7418e-41
8.51213e-42
-2.9978e-40
6.3812e-41
-1.91982e-39
5.22012e-40
-3.30743e-39
4.58195e-40
-1.62672e-39
-5.30601e-40
1.62672e-39
-1.04558e-39
3.3074e-39
-5.30597e-40
1.91945e-39
4.58232e-40
2.97489e-40
5.21706e-40
4.96234e-41
-8.92945e-42
1.66851e-42
-3.01018e-41
1.34808e-41
-1.45177e-40
1.03622e-40
-2.30766e-40
8.00384e-41
-2.18547e-48
-1.99325e-40
2.30766e-40
-1.99325e-40
1.45176e-40
8.00385e-41
3.01013e-41
1.03622e-40
8.87856e-42
1.34946e-41
1.12896e-42
1.96009e-42
1.57657e-43
1.88875e-43
1.4152e-44
1.94159e-44
-1.4153e-44
3.21286e-45
-1.57669e-43
1.94166e-44
-1.1291e-42
1.88885e-43
-8.8802e-42
1.96023e-42
-3.01172e-41
1.34962e-41
-1.45336e-40
1.03642e-40
-2.31911e-40
8.02289e-41
-9.03799e-42
-1.97346e-40
1.9952e-40
-1.8564e-40
-9.03799e-42
1.8564e-40
-2.31911e-40
1.97346e-40
-1.45336e-40
-8.02289e-41
-3.01173e-41
-1.03642e-40
-8.88034e-42
-1.34962e-41
-1.13075e-42
-1.96009e-42
-1.73711e-43
-1.87259e-43
-1.75067e-43
1.25985e-46
-1.14488e-42
1.88738e-43
-9.02222e-42
1.97775e-42
-3.10868e-41
1.36657e-41
-1.53069e-40
1.05411e-40
-2.52974e-40
9.17441e-41
-1.22968e-40
-1.07409e-40
1.22968e-40
-2.11203e-40
2.52974e-40
-1.07408e-40
1.53068e-40
9.17469e-41
3.10552e-41
1.05304e-40
1.04763e-41
-1.19006e-42
2.65915e-43
-2.89816e-42
2.05476e-42
-8.52764e-42
1.48271e-41
-1.23866e-41
1.12552e-41
-7.67135e-49
-2.84897e-41
1.23866e-41
-2.84897e-41
8.5275e-42
1.12552e-41
2.89735e-42
1.48272e-41
1.17671e-42
2.05748e-42
1.62702e-43
3.14568e-43
2.43191e-44
3.17174e-44
2.2607e-45
3.36388e-45
-2.26087e-45
5.72523e-46
-2.43211e-44
3.36402e-45
-1.62726e-43
3.17193e-44
-1.17698e-42
3.14592e-43
-2.8999e-42
2.05777e-42
-8.55211e-42
1.48305e-41
-1.25518e-41
1.12872e-41
-1.20132e-42
-2.81718e-41
9.32394e-42
-2.64003e-41
-1.20132e-42
2.64003e-41
-1.25518e-41
2.81718e-41
-8.55211e-42
-1.12872e-41
-2.89991e-42
-1.48305e-41
-1.177e-42
-2.05776e-42
-1.62998e-43
-3.14567e-43
-2.68952e-44
-3.14294e-44
-2.71185e-44
2.28416e-47
-1.65255e-43
3.16925e-44
-1.19879e-42
3.17619e-43
-3.038e-42
2.08612e-42
-9.56356e-42
1.51131e-41
-1.42478e-41
1.30267e-41
-6.66621e-42
-1.54341e-41
6.66624e-42
-3.02902e-41
1.42486e-41
-1.54341e-41
9.57252e-42
1.30265e-41
3.08417e-42
1.50916e-41
1.57727e-42
-1.40719e-43
4.06844e-44
-2.67152e-43
2.9771e-43
-3.37467e-43
2.07918e-42
-3.43049e-43
1.56436e-42
-1.17205e-49
-3.99581e-42
3.43047e-43
-3.99581e-42
3.37444e-43
1.56437e-42
2.6698e-43
2.07925e-42
1.38531e-43
2.98636e-43
2.04139e-44
4.79622e-44
3.19212e-45
4.99628e-45
3.05492e-46
5.45555e-46
-3.05517e-46
9.48272e-47
-3.19241e-45
5.45579e-46
-2.04172e-44
4.9966e-45
-1.38569e-43
4.79664e-44
-2.67326e-43
2.98684e-43
-3.40677e-43
2.0798e-42
-3.63808e-43
1.56941e-42
-1.41764e-43
-3.9473e-42
5.53076e-44
-3.69213e-42
-1.41764e-43
3.69213e-42
-3.63808e-43
3.9473e-42
-3.40677e-43
-1.56941e-42
-2.67326e-43
-2.0798e-42
-1.38572e-43
-2.98683e-43
-2.0455e-44
-4.79622e-44
-3.54145e-45
-4.94857e-45
-3.57227e-45
3.84314e-48
-2.07599e-44
4.99209e-45
-1.41421e-43
4.84558e-44
-2.84507e-43
3.03134e-43
-4.58448e-43
2.12272e-42
-4.89023e-43
1.81954e-42
-1.91468e-43
-2.17173e-42
1.9148e-43
-4.25552e-42
4.89203e-43
-2.17173e-42
4.60362e-43
1.81939e-42
2.94346e-43
2.11871e-42
2.25873e-43
-1.62528e-44
1.4688e-44
-2.62492e-44
3.30437e-44
2.54098e-45
2.53813e-43
2.93169e-44
1.89433e-43
3.00563e-49
-4.88717e-43
-2.93145e-44
-4.88713e-43
-2.52236e-45
1.89491e-43
2.62227e-44
2.54362e-43
1.61661e-44
3.78138e-44
2.48079e-45
6.28975e-45
4.01423e-46
6.74171e-46
3.92114e-47
7.52278e-47
-3.92147e-47
1.33217e-47
-4.01463e-46
7.52314e-47
-2.48123e-45
6.74217e-46
-1.6171e-44
6.29034e-45
-2.62672e-44
3.78205e-44
2.11559e-45
2.54437e-43
2.67891e-44
1.90172e-43
-1.65729e-44
-4.82348e-43
-5.80625e-44
-4.50218e-43
-1.65729e-44
4.50218e-43
2.67891e-44
4.82348e-43
2.11559e-45
-1.90172e-43
-2.62672e-44
-2.54437e-43
-1.61714e-44
-3.78205e-44
-2.48618e-45
-6.28974e-45
-4.46389e-46
-6.67467e-46
-4.50414e-46
5.46544e-49
-2.52532e-45
6.73574e-46
-1.65288e-44
6.35767e-45
-2.83413e-44
3.84194e-44
-1.15252e-44
2.60046e-43
1.71394e-44
2.21621e-43
1.46977e-44
-2.6648e-43
-1.46951e-44
-5.21454e-43
-1.71087e-44
-2.66482e-43
1.18391e-44
2.21588e-43
2.99395e-44
2.59445e-43
2.8299e-44
4.21774e-45
-9.94563e-45
-1.94944e-45
-3.73505e-44
2.54419e-45
2.55197e-44
6.48662e-45
2.19026e-44
3.11474e-48
-5.79699e-44
-6.45734e-45
-5.79411e-44
-2.27916e-45
2.23189e-44
2.59233e-45
3.01524e-44
1.75548e-45
4.58577e-45
2.7774e-46
7.8507e-46
4.60171e-47
8.59234e-47
4.5736e-48
9.75979e-48
-4.57401e-48
1.75273e-48
-4.60219e-47
9.76027e-48
-2.77793e-46
8.59297e-47
-1.75607e-45
7.85149e-46
-2.59754e-45
4.58665e-45
2.23253e-45
3.01622e-44
6.17465e-45
2.24059e-44
-1.80214e-45
-5.71441e-44
-9.33288e-45
-5.32663e-44
-1.80214e-45
5.32663e-44
6.17465e-45
5.71441e-44
2.23253e-45
-2.24059e-44
-2.59754e-45
-3.01622e-44
-1.75612e-45
-4.58665e-45
-2.78379e-46
-7.85069e-46
-5.12738e-47
-8.50413e-47
-5.17495e-47
7.26305e-50
-2.82943e-46
8.58441e-47
-1.79699e-45
7.93868e-46
-2.82863e-45
4.6628e-45
7.59995e-46
3.08604e-44
5.38446e-45
2.61968e-44
3.35236e-45
-3.16642e-44
-3.35197e-45
-6.18945e-44
-5.38026e-45
-3.16646e-44
-7.18392e-46
2.61912e-44
3.03793e-45
3.07768e-44
3.39991e-45
1.53493e-43
1.48575e-42
1.13084e-44
-3.77077e-43
3.5394e-45
-3.78215e-44
1.13742e-45
-6.82275e-46
2.97827e-47
-6.55262e-45
-8.25433e-46
-6.35028e-45
-3.311e-46
2.42412e-45
2.61217e-46
3.29786e-45
1.85313e-46
5.12648e-46
2.99214e-47
8.96498e-47
5.0459e-48
9.99161e-48
5.07985e-49
1.15059e-48
-5.08031e-49
2.09189e-49
-5.04644e-48
1.15065e-48
-2.99274e-47
9.99238e-48
-1.85378e-46
8.96595e-47
-2.61784e-46
5.12756e-46
3.26155e-46
3.29906e-45
7.97249e-46
2.43508e-45
-1.9043e-46
-6.24564e-45
-1.11946e-45
-5.81369e-45
-1.9043e-46
5.81369e-45
7.97249e-46
6.24564e-45
3.26155e-46
-2.43508e-45
-2.61785e-46
-3.29906e-45
-1.85384e-46
-5.12755e-46
-2.99933e-47
-8.96499e-47
-5.63081e-48
-9.88633e-48
-5.68419e-48
8.73783e-51
-3.05002e-47
9.98206e-48
-1.89857e-46
9.06857e-47
-2.8659e-46
5.21595e-46
1.71343e-46
3.37862e-45
7.26473e-46
2.85693e-45
4.32552e-46
-3.47047e-45
-4.32501e-46
-6.77743e-45
-7.2595e-46
-3.47053e-45
-1.66296e-46
2.85614e-45
3.11792e-46
3.36826e-45
3.77383e-46
3.38036e-42
-6.84086e-42
3.16657e-43
-6.71466e-43
3.35517e-44
-5.46523e-44
2.78942e-45
-3.56418e-45
2.13903e-46
-1.02204e-45
-7.24254e-47
-7.73527e-46
-3.53732e-47
2.87117e-46
2.54601e-47
3.93721e-46
1.84277e-47
6.2164e-47
3.02653e-48
1.10464e-47
5.17146e-49
1.2475e-48
5.26546e-50
1.45145e-49
-5.26588e-50
2.66283e-50
-5.1719e-49
1.45153e-49
-3.02692e-48
1.24761e-48
-1.84304e-47
1.10478e-47
-2.54526e-47
6.21811e-47
3.58956e-47
3.93929e-46
8.46294e-47
2.89443e-46
-1.89481e-47
-7.45395e-46
-1.16195e-46
-6.93159e-46
-1.89481e-47
6.93159e-46
8.46294e-47
7.45395e-46
3.58956e-47
-2.89443e-46
-2.54526e-47
-3.93929e-46
-1.8431e-47
-6.2181e-47
-3.03382e-48
-1.10466e-47
-5.7785e-49
-1.2341e-48
-5.83427e-49
1.11887e-51
-3.08636e-48
1.24628e-48
-1.88887e-47
1.11771e-47
-2.79543e-47
6.32833e-47
2.05585e-47
4.03715e-46
7.8185e-47
3.40419e-46
4.59514e-47
-4.1504e-46
-4.59454e-47
-8.09952e-46
-7.81264e-47
-4.15048e-46
-2.00061e-47
3.40308e-46
3.06933e-47
4.02356e-46
4.55105e-47
5.28384e-36
-1.83962e-35
-3.62564e-35
5.72428e-36
-1.66173e-37
-1.66115e-33
-2.87878e-35
-7.48451e-37
1.73276e-35
1.86433e-33
4.20081e-35
-1.12152e-35
1.11234e-36
2.77445e-35
4.15962e-35
6.58217e-37
5.90921e-36
5.03904e-35
6.02851e-36
6.46209e-36
-5.31332e-37
8.66207e-35
1.03594e-35
-5.97116e-37
-1.08868e-35
1.73691e-34
7.82774e-35
-1.19971e-35
-1.96595e-35
3.01347e-33
2.00191e-34
-2.16123e-35
-6.11966e-37
3.20283e-33
2.03977e-34
-6.72115e-37
1.96078e-35
8.23591e-35
2.15544e-35
9.95592e-36
1.27464e-35
1.63619e-36
1.30035e-36
1.62436e-37
1.59524e-37
2.16175e-38
1.32091e-38
3.58304e-38
9.36749e-40
4.21897e-37
-3.64038e-39
3.70302e-36
-4.01755e-38
4.25733e-35
-4.93875e-37
2.53063e-34
-3.89261e-36
3.7984e-34
-3.98818e-35
1.08911e-32
-3.64463e-35
3.79839e-34
3.64463e-35
2.5306e-34
3.98817e-35
4.25468e-35
3.88725e-36
3.43119e-36
3.32664e-37
1.7335e-37
-3.48628e-36
2.82633e-37
-9.92623e-35
2.74931e-37
-3.52618e-36
2.67644e-38
-1.61189e-37
3.39464e-39
-5.34359e-39
3.37152e-40
4.21219e-41
4.85544e-40
1.26276e-39
7.9281e-39
6.85155e-37
-2.16446e-36
1.01524e-37
-1.12779e-37
1.02358e-38
-5.19667e-39
-2.31455e-40
1.15731e-39
-9.83128e-38
-1.67654e-36
-1.12073e-38
-8.16285e-38
-9.4276e-40
-3.11512e-39
-9.0352e-41
-5.91255e-41
-7.21175e-37
2.46539e-36
-7.23156e-38
1.19976e-37
-5.9649e-39
4.38151e-39
1.01643e-40
-2.55842e-40
8.61508e-38
2.49782e-36
1.62641e-38
1.25046e-37
1.95365e-39
4.96192e-39
1.55054e-40
2.71607e-40
8.32825e-37
5.62301e-37
1.23253e-37
4.4224e-38
1.27308e-38
3.80679e-39
3.10258e-40
1.43864e-39
-9.074e-38
9.94934e-37
-1.44666e-38
7.98855e-38
-1.61597e-39
7.0031e-39
5.73005e-40
-1.89862e-40
-1.59142e-36
4.98342e-36
-2.36887e-37
2.68433e-37
-2.4734e-38
1.23695e-38
5.23934e-40
-2.79629e-39
-2.8128e-36
1.19187e-35
-4.16189e-37
5.84336e-37
-4.30784e-38
2.01015e-38
2.95099e-40
-4.85178e-39
-8.68137e-38
1.21313e-35
-1.28141e-38
5.93856e-37
-1.32159e-39
2.03156e-38
2.85909e-40
-1.48609e-40
2.80427e-36
5.21062e-36
4.14904e-37
2.78159e-37
4.29401e-38
1.25068e-38
5.03734e-40
4.8361e-39
1.69022e-36
9.20943e-37
2.51721e-37
7.15774e-38
2.62884e-38
6.03567e-39
4.82365e-40
2.9732e-39
1.95926e-37
2.12421e-37
3.07052e-38
2.09068e-38
3.39778e-39
2.20993e-39
1.99375e-40
3.96117e-40
2.49719e-38
2.39073e-38
4.21341e-39
2.59594e-39
4.87071e-40
2.93068e-40
2.77868e-41
5.9208e-41
2.16651e-39
3.51439e-39
3.81824e-40
4.40842e-40
4.56312e-41
5.29278e-41
5.49206e-42
5.69161e-42
-1.05221e-40
5.52276e-39
-1.83184e-41
9.89081e-40
-5.79254e-42
1.1907e-40
1.44172e-41
-7.76824e-43
-4.16219e-39
6.11747e-38
-7.26104e-40
1.05535e-38
-1.31999e-40
1.21286e-39
1.43154e-40
-1.69115e-41
-4.48108e-38
5.21854e-37
-7.63473e-39
8.05677e-38
-1.32954e-39
8.69407e-39
9.67854e-40
-1.65948e-40
-5.45412e-37
5.3563e-36
-8.75319e-38
7.3145e-37
-1.45992e-38
7.13623e-38
7.43356e-39
-1.75001e-39
-4.27196e-36
3.05322e-35
-6.58399e-37
2.85435e-36
-1.01669e-37
2.07799e-37
1.59706e-38
-1.1647e-38
-4.29328e-35
2.65784e-34
-5.76982e-36
1.76171e-35
-8.49895e-37
8.90234e-37
3.38831e-38
-9.19128e-38
-3.91654e-35
4.80286e-34
-5.192e-36
3.08467e-35
-7.61619e-37
1.49243e-36
4.9018e-38
-8.18655e-38
3.91654e-35
2.65785e-34
5.19199e-36
1.76174e-35
7.61615e-37
8.90287e-37
3.38924e-38
8.18649e-38
4.29328e-35
3.05356e-35
5.76974e-36
2.85819e-36
8.4985e-37
2.08417e-37
1.60741e-38
9.19048e-38
4.26849e-36
5.3828e-36
6.57159e-37
7.6159e-37
1.01165e-37
7.60216e-38
8.15482e-39
1.15632e-38
4.48965e-37
7.93345e-37
6.53449e-38
3.84205e-37
7.89272e-39
4.95663e-38
7.00163e-39
7.48989e-40
-1.96315e-36
3.09257e-37
-2.99611e-37
2.87599e-37
-5.86572e-38
3.79952e-38
5.55276e-39
-7.55471e-39
-4.59056e-36
-2.42862e-37
-3.18595e-36
-2.76092e-37
-5.91947e-37
-3.66619e-38
-5.3642e-39
-6.85703e-38
-2.00765e-36
-2.71005e-37
-3.07187e-37
-3.03536e-37
-5.99572e-38
-4.07916e-38
-5.65436e-39
-7.69201e-39
-9.64149e-38
-2.64473e-38
-2.2139e-38
-3.00495e-38
-6.46128e-39
-3.96517e-39
3.22387e-39
-6.28423e-40
-3.36585e-39
-3.25574e-39
-6.68465e-40
-2.96543e-39
2.86306e-39
6.98201e-39
4.5024e-38
5.83029e-39
8.94976e-40
3.74111e-40
5.86963e-39
5.46022e-39
3.75324e-38
5.26479e-38
3.37802e-37
8.87524e-38
1.08898e-38
4.93868e-39
7.06152e-38
4.54949e-38
4.9673e-37
4.40781e-37
2.9559e-36
1.57632e-36
7.31289e-38
5.36933e-37
4.38465e-36
2.15972e-35
9.43505e-41
-1.13928e-41
7.87879e-42
-2.56929e-43
5.80882e-43
-1.40313e-44
4.28783e-44
-1.27584e-45
2.90301e-45
-1.84331e-46
1.84863e-46
-5.80255e-47
8.26503e-48
1.66242e-47
3.33497e-48
2.40447e-47
1.94165e-48
3.86328e-48
3.17702e-49
7.02355e-49
5.44652e-50
8.06041e-50
5.57939e-51
9.52596e-51
-5.57223e-51
1.76932e-51
-5.43346e-50
9.52748e-51
-3.15272e-49
8.06282e-50
-1.89866e-48
7.02724e-49
-2.59293e-48
3.86871e-48
3.85056e-48
2.41209e-47
8.94629e-48
1.76457e-47
-1.95305e-48
-4.56249e-47
-1.2176e-47
-4.23877e-47
-1.95305e-48
4.23877e-47
8.94629e-48
4.56249e-47
3.85056e-48
-1.76457e-47
-2.59293e-48
-2.41209e-47
-1.89872e-48
-3.86871e-48
-3.16007e-49
-7.02641e-49
-6.07597e-50
-7.97309e-50
-6.13529e-50
7.50874e-53
-3.21567e-49
8.05394e-50
-1.94676e-48
7.11195e-49
-2.85302e-48
3.93979e-48
2.2742e-48
2.4742e-47
8.31278e-48
2.08014e-47
4.86082e-48
-2.54629e-47
-4.86012e-48
-4.96471e-47
-8.30607e-48
-2.54635e-47
-2.21114e-48
2.07933e-47
3.17059e-48
2.46507e-47
2.80481e-48
-1.6285e-42
-1.97608e-42
2.27134e-43
-4.8592e-44
4.06675e-44
-1.00567e-44
5.03741e-45
-1.22178e-45
4.66532e-46
-1.3501e-46
3.98403e-47
-1.40412e-47
2.84607e-48
2.44923e-49
3.68689e-49
1.48439e-48
1.22022e-49
2.46324e-49
1.89636e-50
4.54613e-50
3.19917e-51
5.26514e-51
3.28551e-52
6.24634e-52
-3.24855e-52
1.16547e-52
-3.13991e-51
6.25575e-52
-1.7992e-50
5.28142e-51
-1.07028e-49
4.5728e-50
-1.45252e-49
2.50551e-49
2.19549e-49
1.54666e-48
5.0716e-49
1.12763e-48
-1.10171e-49
-2.92416e-48
-6.88761e-49
-2.71467e-48
-1.10171e-49
2.71467e-48
5.0716e-49
2.92416e-48
2.19549e-49
-1.12763e-48
-1.45253e-49
-1.54666e-48
-1.07032e-49
-2.50551e-49
-1.80354e-50
-4.57225e-50
-3.51527e-51
-5.22228e-51
-3.55017e-51
4.9509e-54
-1.83597e-50
5.27556e-51
-1.09804e-49
4.6284e-50
-1.60055e-49
2.55206e-49
1.30924e-49
1.58704e-48
4.72451e-49
1.33178e-48
2.75808e-49
-1.63396e-48
-2.75764e-49
-3.18476e-48
-4.72039e-49
-1.63401e-48
-1.27098e-49
1.3312e-48
1.79139e-49
1.58082e-48
1.81414e-49
1.59376e-42
-1.42203e-42
2.87829e-42
-2.8446e-43
3.63525e-43
-1.60973e-44
4.09227e-44
-5.41683e-46
3.56019e-45
1.50983e-47
2.99303e-46
3.70444e-48
2.21319e-47
5.05936e-49
1.59952e-48
1.25835e-49
1.11449e-49
1.73821e-50
7.81365e-51
2.88213e-51
5.93168e-52
3.26249e-52
4.31941e-53
3.82175e-53
-1.78133e-53
7.07946e-54
-1.84154e-52
3.7517e-53
-1.05152e-51
3.14448e-52
-6.21042e-51
2.69735e-51
-8.3987e-51
1.46285e-50
1.27807e-50
8.92912e-50
2.94444e-50
6.48712e-50
-6.39486e-51
-1.6875e-49
-3.99676e-50
-1.56541e-49
-6.39486e-51
1.56541e-49
2.94444e-50
1.6875e-49
1.27807e-50
-6.48712e-50
-8.39872e-51
-8.92912e-50
-6.21066e-51
-1.46285e-50
-1.05409e-51
-2.69702e-51
-2.0636e-52
-3.10878e-52
-2.08421e-52
3.002e-55
-1.0732e-51
3.14092e-52
-6.37318e-51
2.73066e-51
-9.26305e-51
1.49053e-50
7.64603e-51
9.16702e-50
2.74625e-50
7.67616e-50
1.6023e-50
-9.44391e-50
-1.60202e-50
-1.83977e-49
-2.74371e-50
-9.44421e-50
-7.41355e-51
7.67249e-50
1.04299e-50
9.12889e-50
1.05478e-50
2.50509e-41
3.81871e-42
2.43515e-42
1.08784e-43
2.00866e-43
1.4293e-44
1.66978e-44
1.59758e-45
1.24428e-45
1.6523e-46
9.16416e-47
1.36475e-47
6.23734e-48
1.07294e-48
4.1646e-49
7.98644e-50
2.64518e-50
5.87729e-51
1.65751e-51
4.7208e-52
1.03496e-52
3.75229e-53
6.36966e-54
3.30412e-54
-7.6895e-55
4.77832e-55
-1.01077e-53
2.22286e-54
-5.74462e-53
1.85772e-53
-3.36432e-52
1.58591e-52
-4.53382e-52
8.57641e-52
6.93127e-52
5.19592e-51
1.59325e-51
3.76488e-51
-3.46568e-52
-9.816e-51
-2.16271e-51
-9.10058e-51
-3.46568e-52
9.10058e-51
1.59325e-51
9.816e-51
6.93127e-52
-3.76488e-51
-4.53383e-52
-5.19592e-51
-3.36446e-52
-8.57639e-52
-5.75891e-53
-1.58571e-52
-1.13472e-53
-1.83652e-53
-1.14615e-53
1.78153e-56
-5.86456e-53
1.85559e-53
-3.45369e-52
1.60561e-52
-5.00542e-52
8.73993e-52
4.15482e-52
5.3357e-51
1.48765e-51
4.46152e-51
8.67665e-52
-5.49852e-51
-8.67503e-52
-1.0709e-50
-1.4862e-51
-5.49872e-51
-4.02402e-52
4.45923e-51
5.66033e-52
5.31255e-51
6.17903e-52
1.14845e-40
2.81008e-41
9.51159e-42
2.00987e-42
6.94928e-43
1.48127e-43
5.10011e-44
1.00288e-44
3.43235e-45
6.74917e-46
2.28442e-46
4.24671e-47
1.42526e-47
2.62785e-48
8.72882e-49
1.54484e-49
5.08142e-50
8.90711e-51
2.89479e-51
4.96226e-52
1.58374e-52
2.72444e-53
8.47229e-54
1.48217e-54
3.75115e-55
9.20942e-56
-5.27572e-55
1.26619e-55
-3.11065e-54
1.02786e-54
-1.81247e-53
8.71892e-54
-2.43643e-53
4.68991e-53
3.73555e-53
2.81744e-52
8.57329e-53
2.03562e-52
-1.86748e-53
-5.3207e-52
-1.16385e-52
-4.92985e-52
-1.86748e-53
4.92985e-52
8.57329e-53
5.3207e-52
3.73554e-53
-2.03562e-52
-2.43644e-53
-2.81744e-52
-1.81255e-53
-4.6899e-53
-3.11945e-54
-8.71781e-54
-6.15959e-55
-1.01589e-54
-6.22185e-55
9.95295e-58
-3.17697e-54
1.02652e-54
-1.86095e-53
8.82824e-54
-2.69178e-53
4.78033e-53
2.24154e-53
2.89423e-52
8.01094e-53
2.41608e-52
4.67144e-53
-2.98376e-52
-4.67052e-53
-5.80925e-52
-8.00285e-53
-2.98388e-52
-2.16912e-53
2.41476e-52
3.05618e-53
2.88114e-52
3.37215e-53
-1.58233e-41
5.15808e-41
-1.33412e-42
3.65103e-42
-9.95567e-44
2.65504e-43
-7.35866e-45
1.77462e-44
-4.9982e-46
1.17794e-45
-3.3287e-47
7.31604e-47
-2.08072e-48
4.46575e-48
-1.26959e-49
2.58695e-49
-7.36564e-51
1.46679e-50
-4.16388e-52
7.96941e-52
-2.2562e-53
4.23212e-53
-1.19066e-54
2.16907e-54
-6.38279e-56
1.09319e-55
-3.13275e-56
1.19298e-56
-1.60033e-55
5.60847e-56
-9.25537e-55
4.7202e-55
-1.24074e-54
2.53503e-54
1.90812e-54
1.51389e-53
4.37191e-54
1.09139e-53
-9.53869e-55
-2.85804e-53
-5.93577e-54
-2.64682e-53
-9.53869e-55
2.64682e-53
4.37191e-54
2.85804e-53
1.90812e-54
-1.09139e-53
-1.24074e-54
-1.51389e-53
-9.25568e-55
-2.53502e-54
-1.60289e-55
-4.71949e-55
-3.17532e-56
-5.51941e-56
-3.20757e-56
5.42076e-59
-1.63264e-55
5.57732e-56
-9.50492e-55
4.77951e-55
-1.37186e-54
2.58415e-54
1.14625e-54
1.55543e-53
4.08846e-54
1.29696e-53
2.38362e-54
-1.60391e-53
-2.38313e-54
-3.12217e-53
-4.08418e-54
-1.60398e-53
-1.10835e-54
1.29621e-53
1.56286e-54
1.54818e-53
1.82214e-54
-2.23954e-40
2.35231e-41
-1.84979e-41
1.08107e-42
-1.35042e-42
6.38433e-44
-9.8674e-44
3.96516e-45
-6.61977e-45
2.56667e-46
-4.38183e-46
1.57711e-47
-2.72109e-47
9.57493e-49
-1.65613e-48
5.52074e-50
-9.58305e-50
3.11914e-51
-5.41871e-51
1.68809e-52
-2.93852e-52
8.93314e-54
-1.55555e-53
4.55838e-55
-7.94634e-55
2.27664e-56
-4.10369e-56
1.44258e-57
-9.98523e-57
2.93813e-57
-4.66172e-56
2.42974e-56
-6.22472e-56
1.30147e-55
9.59372e-56
7.72161e-55
2.19533e-55
5.55344e-55
-4.79587e-56
-1.45727e-54
-2.98089e-55
-1.34888e-54
-4.79587e-56
1.34888e-54
2.19533e-55
1.45727e-54
9.59374e-56
-5.55344e-55
-6.22432e-56
-7.72161e-55
-4.65289e-56
-1.30146e-55
-8.0924e-57
-2.4292e-56
-1.60457e-57
-2.85305e-57
-1.62089e-57
2.81544e-60
-8.24306e-57
2.88311e-57
-4.77876e-56
2.46027e-56
-6.88617e-56
1.32685e-55
5.76738e-56
7.93534e-55
2.05421e-55
6.60818e-55
1.19746e-55
-8.1849e-55
-1.1972e-55
-1.59291e-54
-2.052e-55
-8.18525e-55
-5.57317e-56
6.6042e-55
7.86959e-56
7.89724e-55
9.34751e-56
-3.86588e-40
-3.83647e-41
-3.18464e-41
-4.29861e-42
-2.31697e-42
-3.51814e-43
-1.68959e-43
-2.42506e-44
-1.13072e-44
-1.62239e-45
-7.47278e-46
-1.00898e-46
-4.63199e-47
-6.15484e-48
-2.81554e-48
-3.56144e-49
-1.62684e-49
-2.01637e-50
-9.18913e-51
-1.09361e-51
-4.97742e-52
-5.79478e-53
-2.63252e-53
-2.96038e-54
-1.34325e-54
-1.47694e-55
-6.69815e-56
-7.11919e-57
-3.62031e-57
-1.90933e-58
-2.39424e-57
1.20943e-57
-2.99955e-57
6.55806e-57
4.62347e-57
3.87256e-56
1.0566e-56
2.77994e-56
-2.3114e-57
-7.30646e-56
-1.43484e-56
-6.76022e-56
-2.3114e-57
6.76022e-56
1.0566e-56
7.30646e-56
4.62378e-57
-2.77994e-56
-2.99258e-57
-3.87257e-56
-2.2421e-57
-6.55874e-57
-3.91792e-58
-1.22472e-57
-7.77919e-59
-1.44225e-58
-7.85856e-59
1.41768e-61
-3.99114e-58
1.45747e-58
-2.30308e-57
1.24042e-57
-3.31293e-57
6.6871e-57
2.78187e-57
3.98028e-56
9.89323e-57
3.31142e-56
5.76615e-57
-4.10611e-56
-5.76487e-57
-7.99009e-56
-9.88231e-57
-4.10629e-56
-2.68665e-57
3.30935e-56
3.79672e-57
3.96073e-56
4.71135e-57
-1.18153e-41
-4.0471e-41
-9.72196e-43
-4.47882e-42
-7.06259e-44
-3.65691e-43
-5.14563e-45
-2.51926e-44
-3.43985e-46
-1.68517e-45
-2.2717e-47
-1.04799e-46
-1.40694e-48
-6.39283e-48
-8.54696e-50
-3.69918e-49
-4.93523e-51
-2.09438e-50
-2.78625e-52
-1.13593e-51
-1.5084e-53
-6.01906e-53
-7.97441e-55
-3.07499e-54
-4.06714e-56
-1.53415e-55
-2.02853e-57
-7.41219e-57
-1.16238e-58
-3.42807e-58
-1.10532e-58
4.32487e-59
-1.41348e-58
3.16535e-58
2.1847e-58
1.86354e-57
4.98708e-58
1.3351e-57
-1.09216e-58
-3.51499e-57
-6.77291e-58
-3.25079e-57
-1.09216e-58
3.25079e-57
4.98709e-58
3.51501e-57
2.18479e-58
-1.33509e-57
-1.41138e-58
-1.86357e-57
-1.05932e-58
-3.1726e-58
-1.85739e-59
-5.92898e-59
-3.68789e-60
-6.98889e-60
-3.72548e-60
-7.56873e-63
-1.89215e-59
7.07459e-60
-1.08821e-58
6.00516e-59
-1.56325e-58
3.23492e-58
1.3152e-58
1.9157e-57
4.67187e-58
1.59214e-57
2.72263e-58
-1.97662e-57
-2.72201e-58
-3.84573e-57
-4.66661e-58
-1.97669e-57
-1.2696e-58
1.5911e-57
1.79616e-58
1.90608e-57
2.2789e-58
3.85317e-40
2.01821e-41
3.17412e-41
8.05689e-43
2.30923e-42
4.27971e-44
1.68393e-43
2.53273e-45
1.1269e-44
1.60875e-46
7.44742e-46
9.78984e-48
4.61617e-47
5.91133e-49
2.80589e-48
3.39097e-50
1.62124e-49
1.90833e-51
9.15736e-51
1.02844e-52
4.96014e-52
5.42287e-54
2.62335e-53
2.75613e-55
1.33854e-54
1.3694e-56
6.66773e-56
6.58907e-58
3.21729e-57
3.13207e-59
1.4686e-58
4.20267e-60
5.24787e-61
1.49687e-59
1.02785e-59
8.78378e-59
2.27372e-59
6.3027e-59
-4.98206e-60
-1.65572e-58
-3.08628e-59
-1.53172e-58
-4.98133e-60
1.53204e-58
2.27232e-59
1.66053e-58
9.96562e-60
-6.27364e-59
-6.42594e-60
-8.78119e-59
-4.83125e-60
-1.50619e-59
-8.50213e-61
-2.81612e-60
-1.70218e-61
-9.30479e-63
-1.70661e-61
-3.35062e-61
-8.65436e-61
2.83376e-61
-4.96369e-60
2.83448e-60
-7.12036e-60
1.53366e-59
6.00293e-60
9.04714e-59
2.12978e-59
7.51445e-59
1.24115e-59
-9.33647e-59
-1.24069e-59
-1.81378e-58
-2.12751e-59
-9.28193e-59
-5.79378e-60
7.48718e-59
8.20186e-60
8.98377e-59
1.05652e-59
2.3819e-40
4.28004e-41
1.96787e-41
3.01086e-42
1.43689e-42
2.18226e-43
1.05011e-43
1.45559e-44
7.04581e-45
9.64424e-46
4.66441e-46
5.98001e-47
2.89685e-47
3.64404e-48
1.76327e-48
2.10735e-49
1.02037e-49
1.1927e-50
5.77007e-51
6.46668e-52
3.12924e-52
3.42574e-53
1.65661e-53
1.7497e-54
8.46124e-55
8.72792e-56
4.21831e-56
4.21657e-57
2.03761e-57
1.98921e-58
9.58948e-59
8.7948e-60
4.13198e-60
-1.61939e-60
6.63043e-61
3.00383e-60
1.02377e-60
6.94367e-60
-2.34148e-61
-4.32578e-60
-1.36764e-60
-6.38666e-60
-2.02738e-61
7.04277e-60
1.00554e-60
1.52249e-59
4.24867e-61
-1.67515e-61
-2.96851e-61
-2.4581e-60
-2.02358e-61
-1.68182e-60
-3.64901e-62
-4.41348e-61
-3.99306e-62
7.2224e-60
-9.83059e-63
-7.53585e-60
-2.03752e-62
-1.14956e-60
-2.12384e-61
-2.86881e-62
-3.07247e-61
1.18631e-60
2.60931e-61
7.12045e-60
9.33309e-61
6.23795e-60
5.73205e-61
-7.52027e-60
-5.3284e-61
-8.5782e-60
-9.74543e-61
5.01862e-60
-2.86033e-61
9.10968e-61
3.83289e-61
3.07121e-60
-4.58909e-60
3.28402e-41
1.88843e-41
2.76528e-42
1.36492e-42
2.06277e-43
1.00018e-43
1.52744e-44
6.71405e-45
1.0398e-45
4.46349e-46
6.94991e-47
2.77678e-47
4.36106e-48
1.69583e-48
2.67382e-49
9.83064e-50
1.55916e-50
5.57365e-51
8.86649e-52
3.02769e-52
4.83651e-53
1.60625e-53
2.57179e-54
8.21644e-55
1.31949e-55
4.10354e-56
6.60153e-57
1.98471e-57
3.19879e-58
9.17463e-59
1.49853e-59
-6.24906e-60
9.65661e-61
-6.24904e-59
5.49107e-61
-2.33351e-59
7.94718e-62
9.44626e-59
-3.05759e-61
7.39547e-59
1.41111e-61
1.28782e-59
4.48417e-61
8.07215e-62
-1.341e-61
1.67451e-58
-4.46388e-61
6.01969e-59
-2.6345e-61
3.51248e-59
2.96481e-61
-2.33633e-59
4.03491e-62
-8.70328e-60
-7.44773e-61
1.58787e-58
-5.00569e-62
-1.65651e-58
4.24863e-61
-2.54303e-59
2.11376e-61
-3.35658e-60
2.35746e-61
1.12323e-59
-1.65222e-61
6.95049e-59
-3.80255e-61
6.50758e-59
4.70675e-61
-7.62178e-59
4.62202e-61
-9.44795e-60
-6.2666e-61
2.03736e-58
-6.32225e-61
-5.92051e-59
4.06224e-61
-2.25015e-59
-1.0947e-58
5.0656e-42
2.70714e-42
4.35827e-43
2.00762e-43
3.30695e-44
1.49303e-44
2.47893e-45
1.01803e-45
1.70432e-46
6.83563e-47
1.14741e-47
4.29876e-48
7.242e-49
2.64472e-49
4.45862e-50
1.54525e-50
2.60836e-51
8.81027e-52
1.48646e-52
4.81406e-53
8.12062e-54
2.56502e-54
4.32126e-55
1.31792e-55
2.21768e-56
6.60347e-57
1.10864e-57
3.15119e-58
5.04613e-59
-3.0146e-59
-8.53227e-61
-2.35085e-58
6.76268e-60
-1.40563e-57
1.17591e-59
-5.27891e-58
7.89575e-61
2.11437e-57
-7.08416e-60
1.66324e-57
4.17153e-60
2.87174e-58
1.03246e-59
-4.56828e-59
-3.71977e-60
3.51409e-57
-1.04344e-59
1.31157e-57
-5.90261e-60
7.82772e-58
6.77073e-60
-5.3104e-58
1.07818e-60
-2.27584e-58
-1.66027e-59
3.36876e-57
-1.08866e-60
-3.52208e-57
9.59574e-60
-5.37251e-58
5.12226e-60
-6.85778e-59
5.85552e-60
2.50796e-58
-4.19594e-60
1.55245e-57
-1.00278e-59
1.45077e-57
9.99073e-60
-1.71379e-57
1.10059e-59
-2.43475e-58
-1.32658e-59
4.3421e-57
-1.36557e-59
-1.36549e-57
8.85633e-60
-4.87578e-58
-2.27459e-57
4.97447e-43
5.54561e-43
4.34203e-44
4.3795e-44
3.33408e-45
3.33752e-45
2.52145e-46
2.37685e-46
1.746e-47
1.62767e-47
1.18206e-48
1.05726e-48
7.49356e-50
6.61547e-50
4.62973e-51
3.96346e-51
2.71565e-52
2.29329e-52
1.55087e-53
1.27825e-53
8.485e-55
6.89635e-55
4.5202e-56
3.59816e-56
2.31899e-57
1.80559e-57
1.03059e-58
-2.87085e-59
-6.99164e-59
-9.8615e-58
-7.80979e-59
-5.14634e-57
1.53312e-58
-3.08276e-56
2.71162e-58
-1.15959e-56
1.77158e-59
4.63686e-56
-1.65709e-58
3.64307e-56
8.40192e-59
6.11449e-57
2.27804e-58
-1.85921e-57
-7.54201e-59
7.22467e-56
-2.28797e-58
2.7909e-56
-1.35808e-58
1.6987e-56
1.46589e-58
-1.1819e-56
2.68505e-59
-5.67777e-57
-3.62204e-58
6.99376e-56
-2.3262e-59
-7.32851e-56
2.1126e-58
-1.10919e-56
1.16233e-58
-1.36104e-57
1.34466e-58
5.48716e-57
-9.75134e-59
3.40081e-56
-2.3346e-58
3.16754e-56
2.18676e-58
-3.78042e-56
2.43989e-58
-6.17986e-57
-2.94141e-58
9.04824e-56
-2.93352e-58
-3.06899e-56
1.96732e-58
-1.02519e-56
-4.61589e-56
-9.85839e-44
1.47507e-42
-9.1741e-45
1.2781e-43
-8.68124e-46
9.89972e-45
-6.97006e-47
7.49102e-46
-5.53454e-48
5.22375e-47
-3.95722e-49
3.54348e-48
-2.76679e-50
2.25841e-49
-1.79575e-51
1.39855e-50
-1.13469e-52
8.23509e-52
-6.77269e-54
4.71037e-53
-3.92989e-55
2.57838e-54
-2.17725e-56
1.36926e-55
-1.22464e-57
6.66647e-57
-3.52798e-58
-2.14293e-57
-1.69347e-57
-2.09048e-56
-1.75629e-57
-1.08644e-55
3.43026e-57
-6.53636e-55
6.06928e-57
-2.4623e-55
3.86403e-58
9.83107e-55
-3.75983e-57
7.715e-55
1.60228e-57
1.2573e-55
4.86238e-57
-5.76128e-56
-1.45095e-57
1.42729e-54
-4.85015e-57
5.73604e-55
-3.03153e-57
3.56307e-55
3.06208e-57
-2.54292e-55
6.44962e-58
-1.34926e-55
-7.63355e-57
1.39692e-54
-4.79268e-58
-1.46761e-54
4.49854e-57
-2.20568e-55
2.55844e-57
-2.5787e-56
2.99739e-57
1.16142e-55
-2.19634e-57
7.20449e-55
-5.27333e-57
6.69718e-55
4.62464e-57
-8.06026e-55
5.23439e-57
-1.48861e-55
-6.31431e-57
1.81546e-54
-6.07418e-57
-6.66395e-55
4.23056e-57
-2.08139e-55
-8.97621e-55
-1.83782e-42
1.42618e-41
-1.65455e-43
1.21695e-42
-1.45516e-44
9.27829e-44
-1.13894e-45
6.95578e-45