/*--------------------------------*- C++ -*----------------------------------*\
| =========                 |                                                 |
| \\      /  F ield         | OpenFOAM: The Open Source CFD Toolbox           |
|  \\    /   O peration     | Version:  2.4.0                                 |
|   \\  /    A nd           | Web:      www.OpenFOAM.org                      |
|    \\/     M anipulation  |                                                 |
\*---------------------------------------------------------------------------*/
FoamFile
{
    version     2.0;
    format      ascii;
    class       surfaceScalarField;
    location    "0.25";
    object      phi;
}
// * * * * * * * * * * * * * * * * * * * * * * * * * * * * * * * * * * * * * //

dimensions      [0 3 -1 0 0 0 0];

internalField   nonuniform List<scalar> 
15214
(
6.47553e-40
5.7999e-42
4.39179e-39
5.26172e-41
5.91648e-39
8.5959e-40
3.1232e-37
7.64878e-40
3.72583e-42
-1.68312e-39
-3.12279e-37
-1.6828e-39
-5.23239e-39
7.70911e-40
6.50419e-40
9.17949e-40
9.70259e-39
9.6518e-40
3.18887e-37
1.63624e-39
3.17396e-37
-8.59269e-40
-3.01324e-37
-2.448e-39
5.07947e-39
7.64878e-40
3.13007e-37
1.62447e-39
5.95737e-39
-7.70935e-40
4.39563e-39
-8.59936e-40
6.46892e-40
-5.26479e-41
3.71909e-41
-5.71312e-42
3.52872e-42
-3.20544e-43
1.97148e-43
-2.46111e-44
1.44362e-44
-1.29632e-45
7.57704e-46
-8.13134e-47
4.63956e-47
-3.99093e-48
4.52561e-48
-2.05891e-49
4.651e-47
2.06363e-49
7.59843e-46
4.00031e-48
1.44802e-44
8.15192e-47
1.97859e-43
1.30009e-45
3.54239e-42
2.46884e-44
3.73736e-41
3.21758e-43
6.50222e-40
5.73642e-42
4.42926e-39
5.29436e-41
6.56668e-39
8.65326e-40
3.16749e-37
8.17821e-40
6.56668e-39
-8.17821e-40
4.42926e-39
-8.65326e-40
6.50222e-40
-5.29436e-41
3.73736e-41
-5.73642e-42
3.54239e-42
-3.21758e-43
1.97859e-43
-2.46885e-44
1.448e-44
-1.30053e-45
7.58753e-46
-8.6435e-47
3.48258e-47
-7.35526e-47
-8.19007e-48
-4.64568e-46
1.19288e-47
-5.38027e-45
-3.51832e-46
6.64325e-41
-5.72965e-42
4.79357e-40
-6.05036e-41
6.62957e-39
-9.7476e-40
1.20674e-38
-8.65354e-40
4.25613e-43
1.90729e-39
-1.20626e-38
1.90694e-39
-6.55881e-39
-8.72012e-40
6.68447e-41
-1.04162e-39
7.04727e-39
-1.09618e-39
1.87638e-38
-1.85311e-39
1.26175e-38
9.74409e-40
-4.88728e-39
2.77265e-39
5.50532e-40
-8.65354e-40
1.21385e-38
-1.84011e-39
6.63432e-39
8.72038e-40
4.79799e-40
9.75138e-40
6.64431e-41
6.05498e-41
4.31931e-42
6.3092e-42
4.01627e-43
3.50744e-43
2.39633e-44
2.6248e-44
1.74548e-45
1.36888e-45
9.55162e-47
8.45526e-47
5.85474e-48
4.11724e-48
5.88128e-49
2.10378e-49
5.86965e-48
-2.10854e-49
9.57942e-47
-4.12676e-48
1.75102e-45
-8.47629e-47
2.40529e-44
-1.37278e-45
4.03277e-43
-2.63284e-44
4.34152e-42
-3.52028e-43
6.68206e-41
-6.33407e-42
4.83714e-40
-6.08741e-41
6.69639e-39
-9.81093e-40
1.25511e-38
-9.26226e-40
6.69639e-39
9.26226e-40
4.83714e-40
9.81093e-40
6.68206e-41
6.08741e-41
4.34152e-42
6.33407e-42
4.03277e-43
3.52028e-43
2.40527e-44
2.63281e-44
1.7484e-45
1.36681e-45
7.71473e-47
1.73043e-47
-1.94486e-46
-9.58808e-46
-1.81133e-46
-6.48599e-45
2.02365e-46
-7.59879e-44
-4.93735e-45
9.01381e-42
-6.82236e-43
3.86036e-41
-7.19378e-42
3.56757e-40
-9.82864e-41
6.30711e-40
-8.52813e-41
7.54502e-44
1.91565e-40
-6.29977e-40
1.9152e-40
-3.47119e-40
-8.60831e-41
9.04988e-42
-1.06242e-40
3.87119e-40
-1.12727e-40
9.96513e-40
-1.85129e-40
6.78947e-40
9.8241e-41
-2.25644e-40
2.76846e-40
4.83108e-41
-8.52812e-41
6.40414e-40
-1.83567e-40
3.5749e-40
8.60865e-41
3.86792e-41
9.83353e-41
8.97891e-42
7.19959e-42
6.58206e-43
7.56748e-43
7.09946e-44
4.53229e-44
4.45493e-45
3.40618e-45
3.44549e-46
1.85716e-46
1.93076e-47
1.15259e-47
1.21616e-48
5.78356e-49
1.23489e-49
2.96743e-50
1.21933e-48
-2.97433e-50
1.93659e-47
-5.79729e-49
3.457e-46
-1.15555e-47
4.47302e-45
-1.86264e-46
7.13197e-44
-3.41713e-45
6.62314e-43
-4.5497e-44
9.04541e-42
-7.59968e-43
3.92657e-41
-7.24149e-42
3.65802e-40
-9.90463e-41
6.69972e-40
-9.25225e-41
3.65802e-40
9.25225e-41
3.92657e-41
9.90463e-41
9.04541e-42
7.24149e-42
6.62314e-43
7.59968e-43
7.13195e-44
4.54967e-44
4.47015e-45
3.41233e-45
3.0586e-46
1.05972e-46
-2.65424e-46
-9.01307e-46
-3.11107e-45
-1.32626e-44
-2.8259e-45
-9.03454e-44
3.1272e-45
-1.08452e-42
-6.91833e-44
7.27173e-43
-1.19922e-43
2.29955e-42
-1.07341e-42
1.46616e-41
-1.40841e-41
2.50603e-41
-1.21679e-41
7.08743e-45
2.74581e-41
-2.49946e-41
2.74503e-41
-1.38798e-41
-1.23017e-41
7.29814e-43
-1.52831e-41
1.63039e-41
-1.62379e-41
4.04512e-41
-2.65118e-41
2.8141e-41
1.40756e-41
-7.31093e-42
3.96259e-41
3.08776e-42
-1.21678e-41
2.58482e-41
-2.62513e-41
1.47272e-41
1.23023e-41
2.30655e-42
1.4092e-41
7.23168e-43
1.07361e-42
5.85962e-44
1.26059e-43
6.64853e-45
7.85701e-45
4.38752e-46
6.22758e-46
3.46043e-47
3.4723e-47
1.99914e-48
2.20884e-48
1.27272e-49
1.12073e-49
1.31853e-50
5.812e-51
1.27612e-49
-5.82563e-51
2.00536e-48
-1.12343e-49
3.47246e-47
-2.21465e-48
4.40623e-46
-3.4829e-47
6.68112e-45
-6.24854e-46
5.90001e-44
-7.88951e-45
7.29374e-43
-1.26647e-43
2.35843e-42
-1.08084e-42
1.53909e-41
-1.42101e-41
2.74182e-41
-1.32486e-41
1.53909e-41
1.32486e-41
2.35843e-42
1.42101e-41
7.29374e-43
1.08084e-42
5.89999e-44
1.26647e-43
6.67775e-45
7.88579e-45
4.01524e-46
5.69102e-46
-5.13742e-46
-9.05966e-46
-3.95014e-45
-1.07851e-44
-4.36721e-44
-1.5868e-43
-3.97483e-44
-1.10305e-42
4.35688e-44
-1.34173e-41
-8.52787e-43
6.98925e-44
-9.30409e-44
1.56134e-43
-1.11671e-43
4.30288e-43
-1.2093e-42
6.45389e-43
-1.02643e-42
7.70192e-46
2.33637e-42
-6.38641e-43
2.33569e-42
-3.54683e-43
-1.03841e-42
7.03095e-44
-1.31013e-42
5.2325e-43
-1.397e-42
1.14584e-42
-2.25045e-42
8.76697e-43
1.19921e-42
1.69678e-44
3.36211e-42
2.32103e-43
-1.02564e-42
7.21564e-43
-2.22562e-42
4.36936e-43
1.03847e-42
1.56623e-43
1.20084e-42
6.95907e-44
9.81475e-44
5.94952e-45
1.19928e-44
7.19017e-46
7.83879e-46
4.86587e-47
6.33505e-47
3.93831e-48
3.6397e-48
2.30574e-49
2.33963e-49
1.48503e-50
1.21061e-50
1.54867e-51
6.31388e-52
1.48905e-50
-6.32896e-52
2.31305e-49
-1.21358e-50
3.95234e-48
-2.34594e-49
4.88744e-47
-3.65114e-48
7.22723e-46
-6.35723e-47
5.99421e-45
-7.87283e-46
7.02606e-44
-1.20524e-44
1.61846e-43
-9.88676e-44
5.0048e-43
-1.21204e-42
8.07155e-43
-1.1245e-42
5.0048e-43
1.1245e-42
1.61846e-43
1.21204e-42
7.02605e-44
9.88674e-44
5.99149e-45
1.20502e-44
6.77375e-46
7.4431e-46
-4.79986e-46
-5.82888e-46
-7.54618e-45
-1.11056e-44
-5.50138e-44
-1.28916e-43
-6.23278e-43
-1.95019e-42
-5.6939e-43
-1.39033e-41
6.17717e-43
-1.75508e-40
-1.08785e-41
1.26734e-45
-1.07039e-42
1.35854e-44
-1.77635e-43
7.48985e-45
-2.31116e-43
2.9775e-45
-1.10051e-43
9.76295e-47
2.28422e-43
-2.05615e-45
2.29498e-43
-8.8615e-46
-1.01878e-43
5.32376e-45
-1.29075e-43
1.1787e-44
-1.37751e-43
1.45416e-44
-2.21083e-43
1.82174e-44
1.17849e-43
1.97105e-44
3.30183e-43
1.56827e-44
-1.00516e-43
8.39031e-45
-2.1845e-43
7.16146e-45
1.01878e-43
9.94932e-45
1.18027e-43
5.26482e-45
9.86979e-45
4.73757e-46
1.2709e-45
5.89306e-47
8.49606e-47
4.10893e-48
7.03878e-48
3.36934e-49
4.09877e-49
2.01038e-50
2.66459e-50
1.30386e-51
1.38855e-51
1.37652e-52
7.27265e-53
1.30744e-51
-7.29007e-53
2.01688e-50
-1.39199e-51
3.38165e-49
-2.67186e-50
4.12773e-48
-4.11189e-49
5.92473e-47
-7.06403e-48
4.77527e-46
-8.53437e-47
5.3196e-45
-1.27753e-45
1.03635e-44
-9.94766e-45
1.19443e-44
-1.19212e-43
1.29567e-44
-1.10463e-43
1.19443e-44
1.10463e-43
1.03634e-44
1.19212e-43
5.31753e-45
9.94652e-45
4.46143e-46
1.25707e-45
-4.66555e-46
-3.08596e-46
-6.18001e-45
-5.96611e-45
-8.93409e-44
-1.03838e-43
-6.63474e-43
-1.22862e-42
-7.62532e-42
-1.89567e-41
-6.98911e-42
-1.41725e-40
7.47579e-42
-1.81764e-39
-1.13021e-40
-4.78809e-44
-1.15465e-41
4.87768e-44
-2.0422e-42
1.16137e-44
-1.47671e-42
3.89208e-45
-1.27467e-43
4.84432e-46
2.32921e-45
1.58181e-45
1.66709e-44
8.85895e-46
-7.90032e-45
4.34948e-46
-9.9979e-45
-6.38675e-47
-1.06871e-44
-1.45494e-45
-1.70169e-44
-2.7492e-46
9.08943e-45
2.27101e-45
2.54063e-44
1.20702e-45
-7.70345e-45
-1.00283e-45
-1.68e-44
-3.67679e-46
7.81575e-45
7.38387e-46
9.10445e-45
4.29554e-46
7.91809e-46
3.95297e-47
1.0455e-46
5.04533e-48
7.19315e-48
3.56774e-49
6.03511e-49
2.95987e-50
3.58079e-50
1.78062e-51
2.34317e-51
1.16041e-52
1.2359e-52
1.23007e-53
6.49259e-54
1.16361e-52
-6.50829e-54
1.78643e-51
-1.239e-52
2.97083e-50
-2.34966e-51
3.58438e-49
-3.59247e-50
5.07313e-48
-6.0573e-49
3.98567e-47
-7.2266e-48
4.34239e-46
-1.05117e-46
7.72812e-46
-7.98394e-46
2.16299e-47
-9.20174e-45
-7.04118e-46
-8.50181e-45
2.15608e-47
8.50178e-45
7.7156e-46
9.20124e-45
4.10337e-46
7.87756e-46
-3.24537e-46
-8.75245e-47
-6.21315e-45
-3.77455e-45
-7.40269e-44
-5.80268e-44
-1.09993e-42
-1.03931e-42
-8.3606e-42
-1.25937e-41
-9.99584e-41
-2.04073e-40
-9.2107e-41
-1.61356e-39
9.7191e-41
-2.20409e-38
-1.31737e-39
-5.00083e-43
-1.36472e-40
6.87325e-43
-2.11619e-41
1.51191e-43
-1.46664e-41
6.45321e-44
-1.17307e-42
5.66853e-45
-1.42799e-43
8.44721e-46
-7.99904e-45
1.32076e-46
-1.40386e-45
3.45354e-47
-8.58623e-46
-2.75505e-47
-8.74327e-46
-1.61021e-46
-1.38376e-45
-5.85693e-47
7.39386e-46
1.73619e-46
2.06533e-45
8.2939e-47
-6.25232e-46
-1.07748e-46
-1.36524e-45
-4.71894e-47
6.34753e-46
4.99446e-47
7.40685e-46
3.01748e-47
6.54452e-47
2.85314e-48
8.85436e-48
3.69106e-49
6.17673e-49
2.65776e-50
5.24217e-50
2.21974e-51
3.13701e-51
1.35108e-52
2.06243e-52
8.8326e-54
1.09267e-53
9.4306e-55
5.74504e-55
8.85715e-54
-5.75894e-55
1.35553e-52
-1.09542e-53
2.22807e-51
-2.06818e-52
2.67039e-50
-3.14733e-51
3.7119e-49
-5.2617e-50
2.87748e-48
-6.20603e-49
3.0517e-47
-8.90363e-48
5.24241e-47
-6.601e-47
-1.99225e-47
-7.48916e-46
-8.87474e-47
-6.91245e-46
-2.05381e-47
6.91097e-46
4.12408e-47
7.45993e-46
-1.84133e-46
3.27348e-48
-3.29558e-45
-1.1344e-45
-5.68974e-44
-2.26406e-44
-6.9015e-43
-3.53152e-43
-1.04455e-41
-6.44834e-42
-8.27533e-41
-8.17908e-41
-1.00906e-39
-1.38438e-39
-9.34209e-40
-1.24708e-38
9.62681e-40
-1.73556e-37
-1.05948e-38
-1.46268e-42
-1.17493e-39
9.4296e-42
-2.30822e-40
2.04205e-42
-1.77235e-40
8.45358e-43
-1.33692e-41
7.13568e-44
-1.59023e-42
8.67314e-45
-9.95714e-44
5.92295e-46
-8.01425e-45
4.9801e-47
-5.03774e-46
2.03977e-49
-9.01117e-47
-1.28353e-47
-9.87452e-47
-5.1796e-48
5.19873e-47
1.27673e-47
1.45199e-46
5.88136e-48
-4.38388e-47
-8.65222e-48
-9.59507e-47
-3.92063e-48
4.45358e-47
3.51939e-48
5.21624e-47
2.15777e-48
4.72477e-48
2.06648e-49
6.47444e-49
2.70256e-50
4.59855e-50
1.96343e-51
3.9274e-51
1.6475e-52
2.37793e-52
1.00797e-53
1.56769e-53
6.59633e-55
8.36564e-55
7.05856e-56
4.4005e-56
6.61468e-55
-4.41118e-56
1.0113e-53
-8.38673e-55
1.65372e-52
-1.57209e-53
1.97285e-51
-2.38583e-52
2.71801e-50
-3.94224e-51
2.08444e-49
-4.62076e-50
2.18279e-48
-6.51135e-49
3.69812e-48
-4.76687e-48
-1.98658e-48
-5.27652e-47
-7.61682e-48
-4.86462e-47
-7.78805e-48
4.76409e-47
-1.02502e-46
3.27274e-47
-2.07715e-45
-4.34636e-46
-3.23507e-44
-8.0951e-45
-5.75085e-43
-1.6543e-43
-7.13006e-42
-2.62924e-42
-1.13111e-40
-5.06086e-41
-9.34759e-40
-6.74244e-40
-1.22239e-38
-1.26536e-38
-1.1398e-38
-1.3099e-37
1.15493e-38
-2.06724e-36
-1.16559e-37
8.82261e-41
-1.28494e-38
1.65391e-40
-1.78134e-39
2.46469e-41
-1.22722e-39
8.30787e-42
-8.96196e-41
6.75248e-43
-9.7341e-42
7.84972e-44
-5.91554e-43
5.21175e-45
-4.53884e-44
4.16288e-46
-2.50469e-45
2.39741e-47
-1.61842e-46
6.77856e-49
-1.58676e-47
-2.72356e-49
3.82974e-48
8.31366e-49
1.18464e-47
3.7746e-49
-3.57912e-48
-5.73893e-49
-7.83979e-48
-2.6286e-49
3.63646e-48
2.24925e-49
4.26583e-48
1.38954e-49
3.90822e-49
1.35382e-50
5.41132e-50
1.78101e-51
3.87747e-51
1.30917e-52
3.32564e-52
1.10126e-53
2.02412e-53
6.78728e-55
1.33545e-54
4.44344e-56
7.14288e-56
4.77412e-57
3.75225e-57
4.4558e-56
-3.76134e-57
6.8097e-55
-7.16089e-56
1.10542e-53
-1.3392e-54
1.31543e-52
-2.03088e-53
1.79112e-51
-3.33831e-52
1.36525e-50
-3.89647e-51
1.40465e-49
-5.4428e-50
2.33505e-49
-3.9443e-49
-2.1081e-49
-4.3177e-48
-2.00708e-48
-4.01098e-48
-3.26289e-47
3.05975e-48
-5.97338e-46
-1.47001e-47
-1.17944e-44
-4.21027e-46
-1.86664e-43
-7.81642e-45
-3.37391e-42
-1.63685e-43
-4.34821e-41
-2.74046e-42
-7.11094e-40
-5.9748e-41
-6.40214e-39
-1.11253e-39
-8.63387e-38
-2.9251e-38
-8.0865e-38
-5.80837e-37
7.7702e-38
-9.32878e-36
-5.6675e-37
-5.15474e-40
-4.57907e-42
-3.5696e-39
-4.29274e-41
-4.84765e-39
-7.77944e-40
-2.82692e-37
-7.00458e-40
-3.83907e-48
1.5261e-39
2.82692e-37
1.5261e-39
4.84765e-39
-7.00458e-40
3.56967e-39
-7.77944e-40
5.14728e-40
-4.29315e-41
2.69773e-41
-4.51208e-42
2.48247e-42
-2.31803e-43
1.18504e-43
-1.72049e-44
-1.18505e-43
-1.66841e-45
-2.4825e-42
-1.7205e-44
-2.69777e-41
-2.31805e-43
-5.14737e-40
-4.51213e-42
-3.5698e-39
-4.29324e-41
-4.85014e-39
-7.77961e-40
-2.82719e-37
-7.00691e-40
-5.1722e-40
1.52157e-39
2.79095e-37
1.48293e-39
-5.1722e-40
-1.48293e-39
-2.82719e-37
-1.52157e-39
-4.85014e-39
7.00691e-40
-3.5698e-39
7.77961e-40
-5.14738e-40
4.29324e-41
-2.69868e-41
4.51208e-42
-2.61084e-42
2.30967e-43
-2.61898e-42
-4.7867e-47
-2.71052e-41
-2.31753e-43
-5.17093e-40
-4.5284e-42
-3.59428e-39
-4.3147e-41
-5.33777e-39
-7.82241e-40
-2.85772e-37
-7.39093e-40
-1.7681e-39
7.86787e-40
1.76809e-39
1.56495e-39
2.85772e-37
7.86786e-40
5.33543e-39
-7.39108e-40
3.57979e-39
-7.82384e-40
-4.59742e-41
-5.26784e-41
4.55315e-42
-3.90113e-40
4.93642e-41
-5.9651e-39
8.82207e-40
-1.09564e-38
7.92692e-40
-4.97522e-50
-1.72952e-39
1.09564e-38
-1.72952e-39
5.9651e-39
7.92692e-40
3.90123e-40
8.82207e-40
5.26521e-41
4.93773e-41
3.13045e-42
4.97413e-42
2.81336e-43
2.53372e-43
1.4391e-44
1.83185e-44
-1.43912e-44
1.76004e-45
-2.81339e-43
1.83186e-44
-3.13051e-42
2.53374e-43
-5.26532e-41
4.97418e-42
-3.90138e-40
4.93782e-41
-5.96538e-39
8.82226e-40
-1.09595e-38
7.92947e-40
-5.29346e-41
-1.72453e-39
1.05631e-38
-1.67989e-39
-5.29346e-41
1.67989e-39
-1.09595e-38
1.72453e-39
-5.96538e-39
-7.92947e-40
-3.90138e-40
-8.82226e-40
-5.26533e-41
-4.93782e-41
-3.1316e-42
-4.97413e-42
-2.96919e-43
-2.52489e-43
-2.97895e-43
4.97328e-47
-3.14598e-42
2.53319e-43
-5.29191e-41
4.99151e-42
-3.92986e-40
4.96133e-41
-6.01489e-39
8.86946e-40
-1.12967e-38
8.37331e-40
-5.62477e-39
-8.91955e-40
5.62477e-39
-1.7744e-39
1.12967e-38
-8.91955e-40
6.01459e-39
8.37343e-40
3.90782e-40
8.86836e-40
4.05749e-41
-7.21734e-42
5.40781e-43
-3.1516e-41
5.87712e-42
-3.22019e-40
8.90858e-41
-5.76123e-40
7.84273e-41
-2.6962e-49
-1.74022e-40
5.76123e-40
-1.74022e-40
3.22019e-40
7.84273e-41
3.15159e-41
8.90858e-41
7.18688e-42
5.87874e-42
4.79303e-43
5.95234e-43
5.00125e-44
3.27224e-44
2.67081e-45
2.37037e-45
-2.67085e-45
2.3848e-46
-5.00132e-44
2.37038e-45
-4.79314e-43
3.27227e-44
-7.1871e-42
5.95241e-43
-3.15188e-41
5.87886e-42
-3.22069e-40
8.90882e-41
-5.76606e-40
7.84601e-41
-7.23712e-42
-1.73425e-40
5.44125e-40
-1.68111e-40
-7.23712e-42
1.68111e-40
-5.76606e-40
1.73425e-40
-3.22069e-40
-7.84601e-41
-3.15188e-41
-8.90882e-41
-7.18711e-42
-5.87885e-42
-4.7953e-43
-5.95234e-43
-5.292e-44
-3.26028e-44
-5.31128e-44
6.7478e-48
-4.82199e-43
3.27153e-44
-7.23424e-42
5.97478e-43
-3.19478e-41
5.90921e-42
-3.28774e-40
8.96506e-41
-6.00884e-40
8.37413e-41
-2.97258e-40
-9.02504e-41
2.97258e-40
-1.79367e-40
6.00884e-40
-9.02504e-41
3.28769e-40
8.37427e-41
3.19386e-41
8.96365e-41
4.81939e-42
-5.84762e-43
9.03286e-44
-1.88334e-42
8.76664e-43
-1.32999e-41
1.27737e-41
-2.30878e-41
1.12028e-41
-3.41036e-50
-2.49592e-41
2.30878e-41
-2.49592e-41
1.32998e-41
1.12028e-41
1.88327e-42
1.27737e-41
5.81368e-43
8.77056e-43
4.27705e-44
9.95209e-44
4.68667e-45
5.68505e-45
2.62842e-46
4.34647e-46
-2.62845e-46
4.46613e-47
-4.68674e-45
4.3465e-46
-4.27716e-44
5.68511e-45
-5.8139e-43
9.95222e-44
-1.88356e-42
8.77079e-43
-1.33046e-41
1.27741e-41
-2.31309e-41
1.12085e-41
-5.86078e-43
-2.48592e-41
2.11615e-41
-2.40764e-41
-5.86078e-43
2.40764e-41
-2.31309e-41
2.48592e-41
-1.33046e-41
-1.12085e-41
-1.88356e-42
-1.27741e-41
-5.81391e-43
-8.77079e-43
-4.27933e-44
-9.95209e-44
-4.97334e-45
-5.66266e-45
-4.99262e-45
1.29474e-48
-4.3056e-44
5.68369e-45
-5.85793e-43
9.99318e-44
-1.92162e-42
8.82329e-43
-1.38429e-41
1.28679e-41
-2.4428e-41
1.19856e-41
-1.19596e-41
-1.29683e-41
1.19596e-41
-2.57473e-41
2.44281e-41
-1.29683e-41
1.38438e-41
1.19856e-41
1.93061e-42
1.28641e-41
7.0681e-43
-5.66554e-44
8.55876e-45
-1.28202e-43
8.01954e-44
-3.99128e-43
1.08933e-42
-6.19499e-43
9.46218e-43
-5.51943e-51
-2.12587e-42
6.19499e-43
-2.12587e-42
3.99126e-43
9.46218e-43
1.28185e-43
1.08933e-42
5.61769e-44
8.02383e-44
4.35056e-45
9.47209e-45
5.07933e-46
5.6758e-46
2.91219e-47
4.42009e-47
-2.91223e-47
4.68152e-48
-5.07941e-46
4.42013e-47
-4.35069e-45
5.67587e-46
-5.61794e-44
9.47224e-45
-1.28217e-43
8.02406e-44
-3.99637e-43
1.08937e-42
-6.23881e-43
9.46788e-43
-5.66874e-44
-2.11636e-42
4.86932e-43
-2.04506e-42
-5.66874e-44
2.04506e-42
-6.23881e-43
2.11636e-42
-3.99637e-43
-9.46788e-43
-1.28217e-43
-1.08937e-42
-5.61795e-44
-8.02406e-44
-4.35316e-45
-9.47209e-45
-5.39773e-46
-5.65233e-46
-5.41967e-46
1.3686e-49
-4.38227e-45
5.67436e-46
-5.66558e-44
9.5138e-45
-1.32057e-43
8.0764e-44
-4.51432e-43
1.09828e-42
-6.95379e-43
1.01751e-42
-3.23247e-43
-1.10783e-42
3.23247e-43
-2.19769e-42
6.95395e-43
-1.10783e-42
4.5173e-43
1.01751e-42
1.34307e-43
1.09783e-42
6.40911e-44
-4.30046e-45
9.13611e-46
-8.15994e-45
8.06437e-45
-6.91165e-45
1.07104e-43
-4.87809e-45
9.28013e-44
-5.27665e-52
-2.09049e-43
4.87808e-45
-2.09049e-43
6.91145e-45
9.28013e-44
8.15814e-45
1.07104e-43
4.25767e-45
8.07126e-45
3.46788e-46
1.00542e-45
4.16459e-47
6.15789e-47
2.45774e-48
4.91689e-48
-2.45778e-48
5.27561e-49
-4.16467e-47
4.91693e-48
-3.468e-46
6.15797e-47
-4.25788e-45
1.00543e-45
-8.16082e-45
8.07152e-45
-6.95332e-45
1.07109e-43
-5.22755e-45
9.28632e-44
-4.29954e-45
-2.08039e-43
-3.62953e-45
-2.00916e-43
-4.29954e-45
2.00916e-43
-5.22755e-45
2.08039e-43
-6.95332e-45
-9.28632e-44
-8.16082e-45
-1.07109e-43
-4.25789e-45
-8.07152e-45
-3.47011e-46
-1.00542e-45
-4.43366e-47
-6.13144e-47
-4.45238e-47
1.55897e-50
-3.49468e-46
6.15625e-47
-4.29687e-45
1.01005e-45
-8.46574e-45
8.12818e-45
-1.08615e-44
1.08053e-43
-9.08615e-45
9.99241e-44
-2.70338e-45
-1.09068e-43
2.70347e-45
-2.16229e-43
9.08797e-45
-1.09068e-43
1.08933e-44
9.99224e-44
8.69312e-45
1.07996e-43
6.37055e-45
-3.50745e-46
2.78322e-46
-6.06523e-46
6.19479e-46
2.92341e-46
8.26369e-45
1.13679e-45
7.12098e-45
2.74652e-52
-1.61231e-44
-1.13678e-45
-1.61231e-44
-2.92309e-46
7.12112e-45
6.06058e-46
8.26578e-45
3.47707e-46
6.47829e-46
2.89503e-47
8.27389e-47
3.56813e-48
5.21602e-48
2.13293e-49
4.21527e-49
-2.13297e-49
4.60916e-50
-3.56819e-48
4.21531e-49
-2.89513e-47
5.2161e-48
-3.47726e-46
8.27404e-47
-6.06291e-46
6.47852e-46
2.88722e-46
8.2662e-45
1.1076e-45
7.12636e-45
-3.51295e-46
-1.604e-44
-1.77202e-45
-1.54701e-44
-3.51295e-46
1.54701e-44
1.1076e-45
1.604e-44
2.88722e-46
-7.12636e-45
-6.06291e-46
-8.2662e-45
-3.47727e-46
-6.47852e-46
-2.89699e-47
-8.27389e-47
-3.80191e-48
-5.19291e-48
-3.81834e-48
1.36917e-51
-2.9183e-47
5.21458e-48
-3.51063e-46
8.31359e-47
-6.31653e-46
6.52647e-46
-2.98025e-47
8.3437e-45
8.52838e-46
7.69103e-45
5.76256e-46
-8.42726e-45
-5.76244e-46
-1.66979e-44
-8.52643e-46
-8.42727e-45
3.31274e-47
7.69082e-45
6.54686e-46
8.33851e-45
5.08313e-46
1.16885e-47
6.12742e-46
-4.0974e-47
-3.05176e-46
4.07011e-47
6.45683e-46
1.14009e-46
5.76739e-46
4.74859e-51
-1.31203e-45
-1.13944e-46
-1.31195e-45
-3.98116e-47
5.78282e-46
4.10238e-47
6.72614e-46
2.44364e-47
5.35567e-47
2.09038e-48
7.01187e-48
2.6105e-49
4.48103e-49
1.5884e-50
3.66287e-50
-1.58843e-50
4.03893e-51
-2.61055e-49
3.6629e-50
-2.09046e-48
4.4811e-49
-2.44377e-47
7.01199e-48
-4.10411e-47
5.35587e-47
3.95491e-47
6.7265e-46
1.11837e-46
5.78732e-46
-2.46989e-47
-1.3049e-45
-1.57076e-46
-1.25794e-45
-2.46989e-47
1.25794e-45
1.11837e-46
1.3049e-45
3.95491e-47
-5.78732e-46
-4.10411e-47
-6.7265e-46
-2.44378e-47
-5.35587e-47
-2.09185e-48
-7.01187e-48
-2.78472e-49
-4.46078e-49
-2.79703e-49
1.20485e-52
-2.10772e-48
4.47976e-49
-2.46816e-47
7.04634e-48
-4.2869e-47
5.39701e-47
1.72205e-47
6.79212e-46
9.55121e-47
6.2524e-46
5.82443e-47
-6.86295e-46
-5.82433e-47
-1.35932e-45
-9.54959e-47
-6.86296e-46
-1.69519e-47
6.25216e-46
4.46999e-47
6.78729e-46
4.17669e-47
1.62481e-45
5.52826e-44
1.51276e-47
-5.93598e-45
2.10676e-47
-4.01579e-46
1.01579e-47
1.9615e-47
7.5833e-50
-9.33647e-47
-9.01192e-48
-9.24206e-47
-3.34059e-48
4.0579e-47
2.89164e-48
4.73831e-47
1.7478e-48
3.86775e-48
1.51432e-49
5.12772e-49
1.91178e-50
3.33693e-50
1.1732e-51
2.74359e-51
-1.17322e-51
3.06148e-52
-1.91182e-50
2.74361e-51
-1.51438e-49
3.33698e-50
-1.7479e-48
5.12781e-49
-2.89291e-48
3.86791e-48
3.32156e-48
4.73859e-47
8.86314e-48
4.06142e-47
-1.76702e-48
-9.18651e-47
-1.20602e-47
-8.84794e-47
-1.76702e-48
8.84794e-47
8.86314e-48
9.18651e-47
3.32156e-48
-4.06142e-47
-2.89291e-48
-4.73859e-47
-1.7479e-48
-3.86791e-48
-1.51541e-49
-5.12772e-49
-2.04052e-50
-3.32158e-50
-2.04965e-50
9.14937e-54
-1.52714e-49
3.33597e-50
-1.76575e-48
5.15352e-49
-3.02512e-48
3.89853e-48
1.72647e-48
4.78651e-47
7.73853e-48
4.39665e-47
4.61811e-48
-4.83833e-47
-4.61802e-48
-9.57973e-47
-7.73722e-48
-4.83834e-47
-1.70507e-48
4.39644e-47
3.16984e-48
4.78273e-47
3.00785e-48
6.28339e-44
-1.58931e-43
3.96906e-45
-1.12479e-44
2.7735e-46
-6.56788e-46
1.57707e-47
-2.6152e-47
7.85058e-49
-8.94805e-48
-5.58553e-49
-7.61205e-48
-2.23045e-49
3.31116e-48
1.84944e-49
3.87552e-48
1.12574e-49
3.19982e-49
9.92321e-51
4.28662e-50
1.25975e-51
2.81422e-51
7.82186e-53
2.32318e-52
-7.82197e-53
2.606e-53
-1.25977e-51
2.32321e-52
-9.92348e-51
2.81427e-51
-1.12578e-49
4.28671e-50
-1.84957e-49
3.19998e-49
2.23462e-49
3.87585e-48
5.8638e-49
3.31641e-48
-1.13838e-49
-7.51201e-48
-7.91268e-49
-7.23229e-48
-1.13838e-49
7.23229e-48
5.8638e-49
7.51201e-48
2.23462e-49
-3.31641e-48
-1.84957e-49
-3.87585e-48
-1.12578e-49
-3.19998e-49
-9.93038e-51
-4.28663e-50
-1.3456e-51
-2.80116e-51
-1.3517e-51
7.79076e-55
-1.00086e-50
2.8134e-51
-1.13753e-49
4.30847e-50
-1.93613e-49
3.2258e-49
1.209e-49
3.91589e-48
5.15346e-49
3.59329e-48
3.05772e-49
-3.9592e-48
-3.05765e-49
-7.83743e-48
-5.15253e-49
-3.95921e-48
-1.19416e-49
3.5931e-48
2.03617e-49
3.91254e-48
2.48235e-49
6.22428e-39
-1.19389e-37
4.99777e-39
-2.9761e-38
6.28216e-40
-2.51634e-38
1.81395e-40
-1.60794e-39
1.36406e-41
-1.69854e-40
1.53406e-42
-9.64966e-42
9.7399e-44
-7.29162e-43
7.65469e-45
-3.85868e-44
4.31673e-46
-2.39782e-45
2.72573e-47
-1.18243e-46
1.36891e-48
-6.16629e-48
1.32908e-49
1.82803e-49
2.96297e-50
-1.55952e-49
-4.00082e-50
-3.12448e-49
-1.84606e-50
1.44494e-49
1.55469e-50
1.69915e-49
9.62988e-51
1.58242e-50
9.43724e-52
2.22365e-51
1.2444e-52
1.61506e-52
9.17747e-54
1.39719e-53
7.71253e-55
8.58638e-55
4.75675e-56
5.69199e-56
3.10456e-57
3.06374e-57
3.32947e-58
1.61271e-58
3.10883e-57
-1.61648e-58
4.7598e-56
-3.07107e-57
7.70535e-55
-5.70678e-56
9.12275e-54
-8.61144e-55
1.22485e-52
-1.40147e-53
8.8466e-52
-1.62008e-52
8.03967e-51
-2.22875e-51
-2.30509e-50
-1.57705e-50
-9.3962e-49
-1.66954e-49
-1.95085e-47
-4.22497e-50
-4.27629e-46
2.85031e-48
-7.96919e-45
5.64363e-47
-1.62651e-43
1.20784e-45
-2.62241e-42
2.20208e-44
-4.98159e-41
4.05777e-43
-6.61091e-40
4.22669e-42
-1.17173e-38
-4.23301e-41
-1.11192e-37
-6.97645e-39
-1.74898e-36
-3.26698e-37
-1.64548e-36
-1.10547e-35
1.65515e-36
-5.11025e-36
-1.1094e-35
1.70991e-36
2.73086e-37
-1.60893e-37
1.75778e-37
-1.22928e-37
1.32209e-38
-2.67973e-38
2.0046e-39
-1.58284e-39
1.33984e-40
-1.60863e-40
1.29575e-41
-9.04668e-42
7.86102e-43
-6.82079e-43
5.83608e-44
-3.59992e-44
3.2256e-45
-2.23652e-45
1.99113e-46
-1.09845e-46
1.00733e-47
-5.89299e-48
5.42047e-49
-2.48903e-49
2.60975e-50
-1.89604e-50
-2.71764e-52
-1.39359e-50
-6.26828e-52
6.17733e-51
5.70401e-52
7.2991e-51
3.53007e-52
6.84259e-52
3.50009e-53
9.58818e-53
4.64466e-54
6.98481e-54
3.45498e-55
6.01336e-55
2.91267e-56
3.69516e-56
1.80623e-57
2.43504e-57
1.17987e-58
1.30756e-58
1.27298e-59
6.83898e-60
1.19385e-58
-6.84244e-60
1.84331e-57
-1.30693e-58
3.01215e-56
-2.43003e-57
3.71114e-55
-3.67309e-56
5.30893e-54
-5.93818e-55
5.13069e-53
-6.75294e-54
7.54521e-52
-8.93239e-53
9.76455e-51
-5.11619e-52
2.11275e-49
-2.91563e-51
4.43232e-48
9.64971e-50
9.47391e-47
2.40898e-48
1.77104e-45
5.02832e-47
3.48848e-44
1.08081e-45
5.6636e-43
1.97836e-44
1.0255e-41
3.67939e-43
1.37756e-40
4.05746e-42
2.28205e-39
-2.37253e-41
2.21387e-38
-5.60442e-39
3.13192e-37
-2.68617e-37
4.45503e-37
-9.23566e-36
2.19334e-38
-9.70578e-34
-9.27459e-36
-1.34637e-37
1.59002e-35
-8.21457e-36
3.26236e-37
-1.67546e-37
2.44738e-37
1.78273e-38
3.69455e-38
1.37208e-39
2.20527e-39
1.57823e-40
2.12015e-40
9.04972e-42
1.21161e-41
6.86321e-43
8.94123e-43
3.62472e-44
4.76243e-44
2.25089e-45
2.92341e-45
1.10488e-46
1.44239e-46
5.93253e-48
7.69065e-48
2.71286e-49
3.51685e-49
1.26946e-50
1.66629e-50
4.8453e-53
6.84125e-52
2.55012e-52
5.25907e-53
2.73763e-52
1.486e-53
2.59231e-53
1.4061e-54
3.64217e-54
1.81455e-55
2.67499e-55
1.3446e-56
2.30528e-56
1.12513e-57
1.4236e-57
6.96355e-59
9.37487e-59
4.53352e-60
5.0455e-60
8.74662e-61
2.62904e-61
1.634e-59
-2.78809e-61
4.13377e-58
-5.51772e-60
1.09097e-56
-1.07968e-58
2.7912e-55
-1.83422e-57
7.26712e-54
-3.47303e-56
1.79888e-52
-5.83151e-55
4.4588e-51
-1.20788e-53
1.03028e-49
-2.3764e-52
2.3848e-48
-5.56856e-51
5.02531e-47
-1.22381e-49
1.07742e-45
-2.84573e-48
2.03031e-44
-5.9486e-47
4.01619e-43
-1.28093e-45
6.59581e-42
-2.33041e-44
1.20128e-40
-4.27988e-43
1.64295e-39
-4.18911e-42
2.74761e-38
6.29715e-41
2.76086e-37
8.3845e-39
3.99205e-36
3.88442e-37
3.88284e-36
1.31444e-35
1.29025e-35
1.08501e-33
1.31802e-35
-3.2766e-36
3.00121e-37
-1.17949e-37
1.46735e-37
-7.66826e-38
1.1546e-38
2.1667e-38
1.8079e-39
1.51843e-39
1.23328e-40
1.67703e-40
1.21145e-41
9.59692e-42
7.42569e-43
7.27085e-43
5.55866e-44
3.84971e-44
3.09092e-45
2.39253e-45
1.91769e-46
1.17684e-46
9.74103e-48
6.32323e-48
5.23868e-49
2.88835e-49
2.44625e-50
1.37948e-50
1.16961e-51
5.67111e-52
4.96545e-53
3.43353e-53
2.96162e-54
1.15639e-53
5.65296e-55
1.04634e-54
5.14113e-56
1.42403e-55
6.46829e-57
1.04233e-56
4.79235e-58
8.90747e-58
3.99125e-59
5.4911e-59
2.47361e-60
3.59233e-60
1.60075e-61
1.92758e-61
1.77204e-62
9.57351e-63
1.66497e-61
-2.36763e-62
2.50814e-60
-6.16637e-61
3.05552e-59
-1.64448e-59
1.28025e-58
-4.28406e-58
-1.16697e-56
-1.15404e-56
-4.51022e-55
-2.99156e-55
-1.85776e-53
-7.86071e-54
-4.50777e-52
-1.94991e-52
-1.48698e-50
-4.85609e-51
-3.06875e-49
-1.11855e-49
-9.12539e-48
-2.60095e-48
-1.62737e-46
-5.44009e-47
-4.46741e-45
-1.168e-45
-6.72179e-44
-2.12461e-44
-1.73204e-42
-3.86439e-43
-2.09535e-41
-3.62511e-42
-5.15213e-40
6.89117e-41
-4.30368e-39
8.15326e-39
-9.96109e-38
3.73138e-37
5.64567e-38
1.24899e-35
4.10812e-37
7.61991e-36
1.25285e-35
2.69257e-37
2.08052e-38
-9.6277e-38
-1.06333e-38
-4.83247e-39
-2.84436e-40
9.71974e-40
7.38389e-41
8.39959e-41
7.77194e-42
9.8038e-42
1.06923e-42
6.08402e-43
7.32958e-44
4.71916e-44
6.11845e-45
2.61917e-45
3.56935e-46
1.65167e-46
2.32423e-47
8.37906e-48
1.20876e-48
4.54871e-49
6.6557e-50
2.12299e-50
3.14355e-51
1.02233e-51
1.52165e-52
4.34597e-53
6.56776e-54
2.23565e-54
3.14851e-55
4.46672e-55
2.84787e-56
3.86343e-56
2.16423e-57
5.08882e-57
2.41585e-58
3.72236e-58
1.74357e-59
3.16224e-59
1.4219e-60
1.95204e-60
8.73639e-62
1.27209e-61
4.56879e-64
6.83623e-63
-1.59841e-61
7.11253e-64
-4.89856e-60
1.1266e-62
-1.42966e-58
3.54498e-61
-4.1135e-57
1.09134e-59
-1.11878e-55
3.19644e-58
-3.0207e-54
9.21582e-57
-7.60622e-53
2.50592e-55
-1.92193e-51
6.76866e-54
-4.44055e-50
1.7004e-52
-1.04705e-48
4.29697e-51
-2.1921e-47
9.88871e-50
-4.81095e-46
2.33297e-48
-8.96188e-45
4.85572e-47
-1.82798e-43
1.06789e-45
-2.94566e-42
1.97551e-44
-5.59151e-41
4.07369e-43
-7.4149e-40
6.66347e-42
-1.31309e-38
1.36787e-40
-1.24479e-37
2.24311e-39
-1.95639e-36
5.29279e-38
-1.84086e-36
9.18498e-37
1.85146e-36
1.46707e-35
9.20702e-37
1.91834e-36
8.36466e-40
-1.38105e-38
-6.8026e-40
-6.75016e-40
-3.22205e-41
4.14554e-41
1.68658e-42
5.30833e-42
2.94514e-43
8.41343e-43
4.85109e-44
5.73177e-44
3.6119e-45
4.92522e-45
3.14252e-46
2.8567e-46
1.91021e-47
1.88582e-47
1.26765e-48
9.78261e-49
6.76248e-50
5.43017e-50
3.76546e-51
2.56267e-51
1.80925e-52
1.24743e-52
8.82536e-54
5.38537e-54
3.86323e-55
2.47677e-55
1.78661e-56
2.25787e-56
1.24303e-57
1.64249e-57
8.37878e-59
1.89917e-58
8.42465e-60
1.35361e-59
5.93346e-61
1.12466e-60
4.74125e-62
6.89714e-62
2.91505e-63
4.45265e-63
5.62549e-64
2.60725e-64
1.17888e-62
7.69371e-64
3.59023e-61
2.45023e-62
1.04669e-59
7.61879e-61
2.99722e-58
2.32696e-59
8.13927e-57
6.77711e-58
2.18224e-55
1.94771e-56
5.4807e-54
5.28536e-55
1.37055e-52
1.42573e-53
3.15296e-51
3.57992e-52
7.32173e-50
9.03971e-51
1.52218e-48
2.08061e-49
3.26615e-47
4.9052e-48
6.01529e-46
1.0214e-46
1.18595e-44
2.24434e-45
1.87449e-43
4.15301e-44
3.3735e-42
8.54126e-43
4.31781e-41
1.38864e-41
6.99555e-40
2.80008e-40
6.18364e-39
4.36867e-39
8.23869e-38
9.81373e-38
7.6937e-38
1.57169e-36
-7.66999e-38
2.50842e-35
1.57153e-36
-8.05796e-38
7.25263e-41
-6.77678e-40
-7.38744e-41
-3.8112e-41
-4.01663e-42
7.43157e-43
-1.46628e-43
1.97101e-43
5.49276e-45
3.83186e-44
2.36297e-45
2.84237e-45
2.06815e-46
2.55687e-46
2.01451e-47
1.54823e-47
1.28787e-48
1.04333e-48
8.91987e-50
5.5565e-50
4.86901e-51
3.12077e-51
2.76513e-52
1.49871e-52
1.34334e-53
7.35082e-54
6.61229e-55
3.21822e-55
2.91161e-56
1.4547e-56
1.31026e-57
1.0034e-57
7.00966e-59
6.47644e-59
3.92251e-60
6.65165e-60
3.19201e-61
4.61998e-61
2.09917e-62
3.75238e-62
1.60387e-63
2.28897e-63
3.82037e-64
1.46659e-64
9.27006e-63
1.36915e-65
2.88269e-61
1.95143e-64
8.80315e-60
6.30982e-63
2.56663e-58
1.9627e-61
7.37395e-57
5.99977e-60
2.00408e-55
1.74826e-58
5.40216e-54
5.03024e-57
1.35937e-52
1.36586e-55
3.42782e-51
3.68988e-54
7.91412e-50
9.2717e-53
1.8611e-48
2.34578e-51
3.89302e-47
5.40486e-50
8.51313e-46
1.27879e-48
1.58411e-44
2.67889e-47
3.21511e-43
6.02075e-46
5.17322e-42
1.21062e-44
9.75026e-41
3.14966e-43
1.29002e-39
9.56312e-42
2.26004e-38
4.12845e-40
2.13374e-37
1.77606e-38
3.29252e-36
6.96089e-37
3.10086e-36
2.13606e-35
-3.09946e-36
5.09795e-35
2.13436e-35
-3.2211e-36
3.37589e-42
-6.11253e-41
-3.548e-42
-3.42659e-42
-2.15024e-43
-1.34827e-43
-1.22743e-44
2.53367e-45
-1.10317e-46
1.83205e-45
8.12763e-47
1.58998e-46
8.34973e-48
1.60512e-47
8.78292e-49
1.02087e-48
5.88128e-50
7.1789e-50
4.17987e-51
3.91082e-51
2.33816e-52
2.23972e-52
1.34499e-53
1.08757e-53
6.63336e-55