/*--------------------------------*- C++ -*----------------------------------*\
| =========                 |                                                 |
| \\      /  F ield         | OpenFOAM: The Open Source CFD Toolbox           |
|  \\    /   O peration     | Version:  2.4.0                                 |
|   \\  /    A nd           | Web:      www.OpenFOAM.org                      |
|    \\/     M anipulation  |                                                 |
\*---------------------------------------------------------------------------*/
FoamFile
{
    version     2.0;
    format      ascii;
    class       volVectorField;
    location    "0.25";
    object      U;
}
// * * * * * * * * * * * * * * * * * * * * * * * * * * * * * * * * * * * * * //

dimensions      [0 1 -1 0 0 0 0];

internalField   nonuniform List<vector> 
7700
(
(9.93424e-37 2.36333e-37 0)
(1.74874e-35 2.30713e-36 0)
(1.07852e-34 3.77447e-35 0)
(2.28167e-33 3.35826e-35 0)
(2.19044e-33 -7.3894e-35 0)
(-2.19033e-33 -7.38804e-35 0)
(-2.2806e-33 3.38418e-35 0)
(-8.93902e-35 4.02989e-35 0)
(1.07953e-34 4.23746e-35 0)
(2.38962e-33 7.1833e-35 0)
(4.49056e-33 -3.7731e-35 0)
(1.26403e-34 -1.07477e-34 0)
(-2.06402e-33 3.35826e-35 0)
(2.20899e-33 7.13272e-35 0)
(2.28273e-33 -3.38428e-35 0)
(1.07953e-34 -3.77594e-35 0)
(1.7496e-35 -2.30869e-36 0)
(9.65935e-37 -2.45598e-37 0)
(9.54728e-38 -1.36627e-38 0)
(5.23486e-39 -1.03625e-39 0)
(3.91635e-40 -5.41862e-41 0)
(2.03648e-41 -3.37381e-42 0)
(1.25959e-42 -1.64679e-43 0)
(6.45118e-44 -8.45598e-45 0)
(6.46464e-44 8.4752e-45 0)
(1.26272e-42 1.65062e-43 0)
(2.04228e-41 3.38227e-42 0)
(3.92833e-40 5.4342e-41 0)
(5.25396e-39 1.03946e-39 0)
(9.5844e-38 1.37135e-38 0)
(9.70776e-37 2.4658e-37 0)
(1.75862e-35 2.32131e-36 0)
(1.08822e-34 3.79913e-35 0)
(2.29925e-33 3.59038e-35 0)
(2.29925e-33 -3.59038e-35 0)
(1.08822e-34 -3.79913e-35 0)
(1.75862e-35 -2.32131e-36 0)
(9.70776e-37 -2.4658e-37 0)
(9.5844e-38 -1.37135e-38 0)
(5.25396e-39 -1.03946e-39 0)
(3.92833e-40 -5.43426e-41 0)
(2.04187e-41 -3.38898e-42 0)
(1.23567e-42 -2.58891e-43 0)
(-2.4176e-43 -6.26846e-43 0)
(8.02013e-45 -7.05056e-42 0)
(3.32421e-43 -4.66767e-43 0)
(1.1327e-37 -1.11171e-37 0)
(1.78268e-36 -1.17165e-36 0)
(1.18979e-35 -1.91947e-35 0)
(1.77306e-34 -1.70765e-35 0)
(1.6709e-34 3.75722e-35 0)
(-1.67078e-34 3.75655e-35 0)
(-1.77183e-34 -1.72055e-35 0)
(-1.00017e-35 -2.04895e-35 0)
(1.19094e-35 -2.1546e-35 0)
(1.89216e-34 -3.6523e-35 0)
(3.46292e-34 1.9188e-35 0)
(1.38043e-35 5.46486e-35 0)
(-1.53285e-34 -1.70765e-35 0)
(1.68996e-34 -3.62711e-35 0)
(1.7743e-34 1.7206e-35 0)
(1.19094e-35 1.9202e-35 0)
(1.7838e-36 1.17255e-36 0)
(1.12445e-37 1.22309e-37 0)
(1.08256e-38 6.74533e-39 0)
(6.3665e-40 5.0514e-40 0)
(4.72476e-41 2.62116e-41 0)
(2.56727e-42 1.61907e-42 0)
(1.58708e-43 7.85541e-44 0)
(8.38345e-45 4.01284e-45 0)
(8.4014e-45 -4.02188e-45 0)
(1.59115e-43 -7.87351e-44 0)
(2.5748e-42 -1.62308e-42 0)
(4.73983e-41 -2.6286e-41 0)
(6.39058e-40 -5.0668e-40 0)
(1.08702e-38 -6.76992e-39 0)
(1.13034e-37 -1.22788e-37 0)
(1.79399e-36 -1.17878e-36 0)
(1.20109e-35 -1.93175e-35 0)
(1.791e-34 -1.82552e-35 0)
(1.791e-34 1.82552e-35 0)
(1.20109e-35 1.93175e-35 0)
(1.79399e-36 1.17878e-36 0)
(1.13034e-37 1.22788e-37 0)
(1.08702e-38 6.76992e-39 0)
(6.39058e-40 5.06679e-40 0)
(4.73933e-41 2.62772e-41 0)
(2.50503e-42 1.52371e-42 0)
(-3.03294e-43 -1.32838e-42 0)
(-5.24722e-42 -9.39855e-42 0)
(7.77779e-44 -1.09056e-40 0)
(5.69759e-42 -7.12578e-42 0)
(1.80001e-38 -1.24749e-38 0)
(2.39249e-37 -1.34017e-37 0)
(8.62476e-37 -1.84063e-36 0)
(9.31916e-36 -1.59791e-36 0)
(8.68099e-36 3.58726e-36 0)
(-8.67883e-36 3.58644e-36 0)
(-9.30036e-36 -1.61257e-36 0)
(-6.06228e-37 -1.98859e-36 0)
(8.64506e-37 -2.10963e-36 0)
(1.01837e-35 -3.46711e-36 0)
(1.82563e-35 1.83981e-36 0)
(1.1205e-36 5.18516e-36 0)
(-7.56025e-36 -1.59791e-36 0)
(8.93901e-36 -3.43854e-36 0)
(9.33805e-36 1.61263e-36 0)
(8.64506e-37 1.84152e-36 0)
(2.39376e-37 1.3412e-37 0)
(1.68765e-38 1.38438e-38 0)
(1.90832e-39 8.2374e-40 0)
(1.17826e-40 6.12936e-41 0)
(9.31516e-42 3.32885e-42 0)
(5.1808e-43 2.05582e-43 0)
(3.29483e-44 1.02961e-44 0)
(1.76024e-45 5.27135e-46 0)
(1.76406e-45 -5.28359e-46 0)
(3.30348e-44 -1.03205e-44 0)
(5.19658e-43 -2.06109e-43 0)
(9.34642e-42 -3.3386e-42 0)
(1.18311e-40 -6.14889e-41 0)
(1.91711e-39 -8.26862e-40 0)
(1.69849e-38 -1.39017e-38 0)
(2.41166e-37 -1.34882e-37 0)
(8.79456e-37 -1.85453e-36 0)
(9.56031e-36 -1.73279e-36 0)
(9.56031e-36 1.73279e-36 0)
(8.79456e-37 1.85453e-36 0)
(2.41166e-37 1.34882e-37 0)
(1.69849e-38 1.39017e-38 0)
(1.91711e-39 8.26862e-40 0)
(1.18304e-40 6.14816e-41 0)
(9.27136e-42 3.2187e-42 0)
(-5.42287e-43 -1.15029e-42 0)
(-7.03277e-42 -1.93627e-41 0)
(-8.17554e-41 -1.30569e-40 0)
(1.10576e-42 -1.53077e-39 0)
(8.81429e-41 -9.94225e-41 0)
(1.61818e-39 -2.24772e-39 0)
(1.91349e-38 -2.12256e-38 0)
(4.64929e-38 -2.80391e-37 0)
(3.7194e-37 -2.42464e-37 0)
(3.43266e-37 5.46729e-37 0)
(-3.43064e-37 5.46575e-37 0)
(-3.70267e-37 -2.45105e-37 0)
(-2.58544e-38 -3.04124e-37 0)
(4.66829e-38 -3.23027e-37 0)
(4.18622e-37 -5.27993e-37 0)
(7.35831e-37 2.80236e-37 0)
(6.72965e-38 7.89193e-37 0)
(-2.75946e-37 -2.42464e-37 0)
(3.64069e-37 -5.22854e-37 0)
(3.73623e-37 2.45117e-37 0)
(4.66829e-38 2.80557e-37 0)
(1.91447e-38 2.12478e-38 0)
(1.49414e-39 2.4869e-39 0)
(1.78157e-40 1.54329e-40 0)
(1.15877e-41 1.2212e-41 0)
(9.33977e-43 6.78915e-43 0)
(5.36099e-44 4.31466e-44 0)
(3.44432e-45 2.1848e-45 0)
(1.87943e-46 1.13239e-46 0)
(1.88359e-46 -1.13504e-46 0)
(3.45361e-45 -2.19006e-45 0)
(5.37783e-44 -4.32598e-44 0)
(9.37242e-43 -6.8098e-43 0)
(1.16379e-41 -1.22529e-41 0)
(1.79037e-40 -1.54965e-40 0)
(1.50479e-39 -2.49843e-39 0)
(1.93111e-38 -2.13899e-38 0)
(4.7997e-38 -2.82888e-37 0)
(3.91251e-37 -2.63854e-37 0)
(3.91251e-37 2.63854e-37 0)
(4.7997e-38 2.82888e-37 0)
(1.93111e-38 2.13899e-38 0)
(1.50479e-39 2.49843e-39 0)
(1.79032e-40 1.54958e-40 0)
(1.15472e-41 1.21567e-41 0)
(-8.79035e-44 -9.31825e-43 0)
(-1.4574e-41 -1.83e-41 0)
(-9.81607e-41 -2.66844e-40 0)
(-1.14822e-39 -1.81909e-39 0)
(1.38205e-41 -2.18733e-38 0)
(1.22961e-39 -1.39356e-39 0)
(1.53655e-40 -3.40206e-40 0)
(1.84104e-39 -1.93868e-39 0)
(2.61494e-39 -2.35454e-38 0)
(9.66525e-39 -2.01189e-38 0)
(8.7538e-39 4.58178e-38 0)
(-8.73182e-39 4.58028e-38 0)
(-9.49462e-39 -2.03664e-38 0)
(-6.27827e-40 -2.56864e-38 0)
(2.63442e-39 -2.73877e-38 0)
(1.22988e-38 -4.41332e-38 0)
(2.04027e-38 2.3517e-38 0)
(4.61771e-39 6.59358e-38 0)
(-4.13346e-39 -2.01178e-38 0)
(1.07575e-38 -4.36499e-38 0)
(9.83548e-39 2.03676e-38 0)
(2.63442e-39 2.35487e-38 0)
(1.83552e-39 1.92081e-39 0)
(1.50558e-40 2.33456e-40 0)
(1.92379e-41 1.52255e-41 0)
(1.28247e-42 1.22718e-42 0)
(1.06218e-43 7.04094e-44 0)
(6.17871e-45 4.52034e-45 0)
(4.01746e-46 2.33733e-46 0)
(2.20744e-47 1.21845e-47 0)
(2.21237e-47 -1.22136e-47 0)
(4.02841e-46 -2.34307e-46 0)
(6.19848e-45 -4.53253e-45 0)
(1.06599e-43 -7.06303e-44 0)
(1.28825e-42 -1.23147e-42 0)
(1.93379e-41 -1.52914e-41 0)
(1.51734e-40 -2.34612e-40 0)
(1.85347e-39 -1.9348e-39 0)
(2.76553e-39 -2.37668e-38 0)
(1.15179e-38 -2.20525e-38 0)
(1.15179e-38 2.20525e-38 0)
(2.76553e-39 2.37668e-38 0)
(1.85347e-39 1.9348e-39 0)
(1.51729e-40 2.34609e-40 0)
(1.92649e-41 1.52174e-41 0)
(6.69549e-44 1.24579e-43 0)
(-1.37655e-41 -1.8619e-41 0)
(-2.01598e-40 -2.14444e-40 0)
(-1.36846e-39 -3.15747e-39 0)
(-1.64195e-38 -2.19847e-38 0)
(1.6949e-40 -2.67672e-37 0)
(1.74598e-38 -1.70096e-38 0)
(-1.92891e-40 -1.66762e-39 0)
(2.2906e-40 -4.71177e-40 0)
(1.5866e-40 -2.55123e-39 0)
(5.50959e-41 -2.03152e-39 0)
(2.98803e-41 4.60111e-39 0)
(-2.7094e-41 4.60141e-39 0)
(-3.15873e-41 -2.04255e-39 0)
(6.29704e-42 -2.5862e-39 0)
(1.4564e-40 -2.75962e-39 0)
(1.90756e-40 -4.43165e-39 0)
(2.24254e-40 2.36195e-39 0)
(2.95659e-40 6.61874e-39 0)
(2.66866e-40 -2.0155e-39 0)
(1.80711e-40 -4.37914e-39 0)
(5.8744e-41 2.04267e-39 0)
(1.4564e-40 2.36548e-39 0)
(1.38308e-40 1.9722e-40 0)
(1.19471e-41 2.5348e-41 0)
(1.57366e-42 1.69063e-42 0)
(1.08189e-43 1.39926e-43 0)
(9.0774e-45 8.13535e-45 0)
(5.38502e-46 5.28589e-46 0)
(3.52494e-47 2.75168e-47 0)
(1.96204e-48 1.44084e-48 0)
(1.96646e-48 -1.44429e-48 0)
(3.53471e-47 -2.75849e-47 0)
(5.40259e-46 -5.3003e-46 0)
(9.11078e-45 -8.16135e-45 0)
(1.08692e-43 -1.40427e-43 0)
(1.58219e-42 -1.69823e-42 0)
(1.20461e-41 -2.54797e-41 0)
(1.39772e-40 -1.9877e-40 0)
(1.55995e-40 -2.38912e-39 0)
(1.84888e-40 -2.21427e-39 0)
(1.84888e-40 2.21427e-39 0)
(1.55995e-40 2.38912e-39 0)
(1.39769e-40 1.98768e-40 0)
(1.199e-41 2.54352e-41 0)
(7.42693e-43 8.44882e-43 0)
(-1.40579e-41 -1.27033e-41 0)
(-1.62316e-40 -2.2104e-40 0)
(-2.38742e-39 -2.56757e-39 0)
(-1.65478e-38 -3.89277e-38 0)
(-2.01075e-37 -2.78048e-37 0)
(1.60942e-39 -3.5198e-36 0)
(2.11745e-37 -2.17748e-37 0)
(-2.54683e-39 -2.14315e-38 0)
(1.18033e-39 -3.36219e-39 0)
(2.11731e-40 -2.43625e-39 0)
(1.19718e-40 -3.43378e-40 0)
(-8.64068e-42 3.28243e-40 0)
(2.24661e-41 3.5116e-40 0)
(2.26778e-41 -1.55993e-40 0)
(2.60511e-42 -1.99241e-40 0)
(9.80805e-42 -2.13056e-40 0)
(-1.16308e-41 -3.39326e-40 0)
(-2.98923e-41 1.81243e-40 0)
(2.20462e-41 5.06625e-40 0)
(4.27672e-41 -1.53631e-40 0)
(-8.31948e-42 -3.35016e-40 0)
(-2.03008e-41 1.55863e-40 0)
(9.80748e-42 1.81541e-40 0)
(1.12657e-41 1.577e-41 0)
(9.9355e-43 2.07814e-42 0)
(1.34606e-43 1.42823e-43 0)
(9.38508e-45 1.19714e-44 0)
(7.9705e-46 7.09816e-46 0)
(4.76815e-47 4.64298e-47 0)
(3.13643e-48 2.44809e-48 0)
(1.75329e-49 1.28596e-49 0)
(1.75725e-49 -1.28907e-49 0)
(3.14516e-48 -2.45421e-48 0)
(4.78384e-47 -4.65584e-47 0)
(8.00019e-46 -7.12128e-46 0)
(9.4296e-45 -1.20154e-44 0)
(1.35355e-43 -1.43486e-43 0)
(1.00213e-42 -2.08939e-42 0)
(1.13908e-41 -1.59008e-41 0)
(1.06648e-41 -1.83475e-40 0)
(-1.00475e-41 -1.69531e-40 0)
(-1.00476e-41 1.69531e-40 0)
(1.06629e-41 1.83474e-40 0)
(1.13569e-41 1.58787e-41 0)
(3.53831e-43 1.69249e-42 0)
(-9.61593e-42 -7.5044e-42 0)
(-1.67704e-40 -1.16046e-40 0)
(-1.94498e-39 -2.01979e-39 0)
(-2.94463e-38 -2.39461e-38 0)
(-2.0916e-37 -3.70158e-37 0)
(-2.6436e-36 -2.78037e-36 0)
(1.49125e-38 -3.5705e-35 0)
(2.75886e-36 -2.22126e-36 0)
(-3.12737e-38 -2.27743e-37 0)
(1.70016e-38 -4.07086e-38 0)
(2.61429e-39 -2.94313e-38 0)
(1.70061e-39 -2.40736e-39 0)
(1.41095e-40 -2.77979e-40 0)
(2.06819e-41 8.59813e-42 0)
(3.42594e-42 -1.44957e-41 0)
(3.43435e-43 -1.65136e-41 0)
(6.42186e-43 -1.75719e-41 0)
(-1.42846e-42 -2.78989e-41 0)
(-3.16699e-42 1.49074e-41 0)
(1.49546e-42 4.16449e-41 0)
(3.45953e-42 -1.26094e-41 0)
(-1.0925e-42 -2.75291e-41 0)
(-1.98257e-42 1.28008e-41 0)
(6.35811e-43 1.49333e-41 0)
(7.8958e-43 1.31721e-42 0)
(7.15916e-44 1.78056e-43 0)
(9.83531e-45 1.24051e-44 0)
(6.98777e-46 1.05234e-45 0)
(5.97328e-47 6.29201e-47 0)
(3.61727e-48 4.13584e-48 0)
(2.38635e-49 2.18998e-49 0)
(1.34419e-50 1.1514e-50 0)
(1.34725e-50 -1.15418e-50 0)
(2.39305e-49 -2.19548e-49 0)
(3.6293e-48 -4.14736e-48 0)
(5.99586e-47 -6.3127e-47 0)
(7.02154e-46 -1.05626e-45 0)
(9.8914e-45 -1.24638e-44 0)
(7.22302e-44 -1.79045e-43 0)
(7.98709e-43 -1.32856e-42 0)
(6.97446e-43 -1.50988e-41 0)
(-1.26602e-42 -1.39379e-41 0)
(-1.26678e-42 1.39374e-41 0)
(6.80634e-43 1.50891e-41 0)
(4.96355e-43 1.12106e-42 0)
(-5.75141e-42 -3.58127e-42 0)
(-8.83025e-41 -7.39505e-41 0)
(-1.53552e-39 -1.13617e-39 0)
(-1.8161e-38 -2.04086e-38 0)
(-2.79949e-37 -2.47827e-37 0)
(-2.08178e-36 -4.03375e-36 0)
(-2.67163e-35 -3.20404e-35 0)
(5.45537e-38 -4.39939e-34 0)
(2.74198e-35 -2.62077e-35 0)
(-2.74902e-37 -2.71732e-36 0)
(2.33158e-37 -4.15967e-37 0)
(3.59575e-38 -2.87071e-37 0)
(2.23215e-38 -2.29075e-38 0)
(1.80456e-39 -2.80364e-39 0)
(2.31925e-40 -1.81218e-40 0)
(1.56013e-41 -1.57997e-41 0)
(1.3025e-42 -2.01549e-42 0)
(1.1879e-43 -1.29608e-42 0)
(-1.12969e-43 -1.96276e-42 0)
(-2.53344e-43 1.04861e-42 0)
(1.05521e-43 2.92495e-42 0)
(2.5885e-43 -8.83157e-43 0)
(-9.09991e-44 -1.93285e-42 0)
(-1.5593e-43 8.97176e-43 0)
(4.40378e-44 1.0507e-42 0)
(5.64036e-44 9.50964e-44 0)
(5.17791e-45 1.30219e-44 0)
(7.19691e-46 9.24329e-46 0)
(5.16032e-47 7.89195e-47 0)
(4.43202e-48 4.77662e-48 0)
(2.6985e-49 3.14893e-49 0)
(1.78195e-50 1.6801e-50 0)
(1.00609e-51 8.8386e-52 0)
(1.00838e-51 -8.86006e-52 0)
(1.78696e-50 -1.68433e-50 0)
(2.70751e-49 -3.15777e-49 0)
(4.44888e-48 -4.79249e-48 0)
(5.1855e-47 -7.92175e-47 0)
(7.2385e-46 -9.28789e-46 0)
(5.22502e-45 -1.3096e-44 0)
(5.70705e-44 -9.59414e-44 0)
(4.84716e-44 -1.0628e-42 0)
(-1.05168e-43 -9.79204e-43 0)
(-1.12212e-43 9.76504e-43 0)
(-1.10054e-43 1.00942e-42 0)
(-2.8153e-42 -1.05042e-42 0)
(-5.64653e-41 -2.08992e-41 0)
(-8.66804e-40 -4.14635e-40 0)
(-1.55458e-38 -6.48487e-39 0)
(-1.87942e-37 -1.18747e-37 0)
(-3.04019e-36 -1.51722e-36 0)
(-2.36373e-35 -2.58413e-35 0)
(-3.25225e-34 -2.37079e-34 0)
(-6.61686e-38 -3.30541e-33 0)
(3.29677e-34 -2.02428e-34 0)
(-1.71876e-36 -2.26378e-35 0)
(4.23668e-36 -4.56519e-36 0)
(4.83476e-37 -3.53768e-36 0)
(2.19933e-37 -2.65601e-37 0)
(1.71684e-38 -3.15135e-38 0)
(2.10276e-39 -1.96754e-39 0)
(1.3751e-40 -1.57148e-40 0)
(1.12304e-41 -8.85596e-42 0)
(6.50219e-43 -6.48532e-43 0)
(3.39886e-44 -1.68168e-43 0)
(-1.4643e-44 7.32728e-44 0)
(6.87007e-45 2.08459e-43 0)
(1.68567e-44 -6.28871e-44 0)
(-6.08417e-45 -1.37771e-43 0)
(-1.02944e-44 6.39071e-44 0)
(2.79254e-45 7.49623e-44 0)
(3.6267e-45 6.86424e-45 0)
(3.38984e-46 9.49959e-46 0)
(4.73888e-47 6.80389e-47 0)
(3.44017e-48 5.83385e-48 0)
(2.96122e-49 3.54956e-49 0)
(1.81704e-50 2.34148e-50 0)
(1.20008e-51 1.25211e-51 0)
(6.80481e-53 6.57696e-53 0)
(6.82026e-53 -6.59289e-53 0)
(1.20346e-51 -1.25526e-51 0)
(1.82311e-50 -2.34806e-50 0)
(2.97249e-49 -3.56141e-49 0)
(3.45691e-48 -5.85608e-48 0)
(4.76606e-47 -6.83723e-47 0)
(3.41974e-46 -9.55489e-46 0)
(3.66683e-45 -6.92773e-45 0)
(2.99728e-45 -7.58771e-44 0)
(-9.01369e-45 -7.0582e-44 0)
(-4.82673e-44 5.15872e-44 0)
(-8.82943e-43 -3.0316e-43 0)
(-1.61647e-41 -8.32903e-42 0)
(-3.20441e-40 -1.53793e-40 0)
(-5.00685e-39 -3.15534e-39 0)
(-9.12825e-38 -5.02542e-38 0)
(-1.14967e-36 -9.73388e-37 0)
(-1.91446e-35 -1.3033e-35 0)
(-1.63569e-34 -2.47223e-34 0)
(-2.30049e-33 -2.58968e-33 0)
(-7.35184e-36 -4.13057e-32 0)
(2.22492e-33 -2.31291e-33 0)
(-7.2564e-37 -1.77347e-37 0)
(-1.39857e-35 -1.78324e-36 0)
(-8.78887e-35 -3.23624e-35 0)
(-2.06083e-33 -2.91364e-35 0)
(-1.98629e-33 6.34762e-35 0)
(1.98629e-33 6.34762e-35 0)
(2.06083e-33 -2.91364e-35 0)
(8.78887e-35 -3.23624e-35 0)
(1.39876e-35 -1.78357e-36 0)
(7.0245e-37 -1.83642e-37 0)
(6.74663e-38 -9.35648e-39 0)
(3.38205e-39 -6.85912e-40 0)
(-1.61097e-45 -6.60485e-41 0)
(-3.38208e-39 -6.85916e-40 0)
(-6.7467e-38 -9.35657e-39 0)
(-7.02462e-37 -1.83644e-37 0)
(-1.39878e-35 -1.7836e-36 0)
(-8.78921e-35 -3.23631e-35 0)
(-2.0609e-33 -2.91458e-35 0)
(-1.987e-33 6.32918e-35 0)
(1.97224e-33 6.16832e-35 0)
(1.97224e-33 -6.16832e-35 0)
(-1.987e-33 -6.32918e-35 0)
(-2.0609e-33 2.91458e-35 0)
(-8.78921e-35 3.23631e-35 0)
(-1.39878e-35 1.7836e-36 0)
(-7.02474e-37 1.83642e-37 0)
(-6.77132e-38 9.32337e-39 0)
(-6.79873e-39 -1.8815e-42 0)
(-6.79455e-38 -9.35451e-39 0)
(-7.05622e-37 -1.84293e-37 0)
(-1.40519e-35 -1.79227e-36 0)
(-8.85268e-35 -3.25374e-35 0)
(-2.07418e-33 -3.07451e-35 0)
(-2.06083e-33 3.27224e-35 0)
(-8.63472e-42 6.50935e-35 0)
(2.06083e-33 3.27223e-35 0)
(2.07418e-33 -3.07456e-35 0)
(8.84623e-35 -3.25383e-35 0)
(1.37027e-35 -1.68428e-36 0)
(-8.27544e-38 8.37246e-38 0)
(-1.42066e-36 9.05559e-37 0)
(-9.71294e-36 1.64568e-35 0)
(-1.60528e-34 1.48151e-35 0)
(-1.52161e-34 -3.22741e-35 0)
(1.52161e-34 -3.22741e-35 0)
(1.60528e-34 1.48151e-35 0)
(9.71294e-36 1.64568e-35 0)
(1.42094e-36 9.05802e-37 0)
(8.17229e-38 9.13895e-38 0)
(7.61845e-39 4.61711e-39 0)
(4.10711e-40 3.34146e-40 0)
(-2.09184e-46 3.19368e-41 0)
(-4.10716e-40 3.34148e-40 0)
(-7.61854e-39 4.61716e-39 0)
(-8.17244e-38 9.13905e-38 0)
(-1.42097e-36 9.05818e-37 0)
(-9.71335e-36 1.64572e-35 0)
(-1.60535e-34 1.48197e-35 0)
(-1.52243e-34 -3.21824e-35 0)
(1.50733e-34 -3.13637e-35 0)
(1.50733e-34 3.13637e-35 0)
(-1.52243e-34 3.21824e-35 0)
(-1.60535e-34 -1.48197e-35 0)
(-9.71335e-36 -1.64572e-35 0)
(-1.42097e-36 -9.05818e-37 0)
(-8.17259e-38 -9.13895e-38 0)
(-7.64812e-39 -4.6011e-39 0)
(-8.25782e-40 9.02825e-43 0)
(-7.67597e-39 4.61617e-39 0)
(-8.21086e-38 9.17067e-38 0)
(-1.42817e-36 9.10101e-37 0)
(-9.78743e-36 1.65439e-35 0)
(-1.61874e-34 1.56338e-35 0)
(-1.60528e-34 -1.6636e-35 0)
(-1.2638e-42 -3.30971e-35 0)
(1.60528e-34 -1.6636e-35 0)
(1.61874e-34 1.5634e-35 0)
(9.77909e-36 1.65419e-35 0)
(1.3736e-36 7.44308e-37 0)
(-1.31965e-38 9.36764e-39 0)
(-1.92782e-37 1.03725e-37 0)
(-7.06666e-37 1.58049e-36 0)
(-8.48358e-36 1.39203e-36 0)
(-7.95865e-36 -3.08719e-36 0)
(7.95865e-36 -3.08719e-36 0)
(8.48358e-36 1.39203e-36 0)
(7.06663e-37 1.58049e-36 0)
(1.92782e-37 1.0375e-37 0)
(1.23279e-38 1.03099e-38 0)
(1.3511e-39 5.6324e-40 0)
(7.62235e-41 4.03882e-41 0)
(-4.44996e-47 4.04855e-42 0)
(-7.62244e-41 4.03885e-41 0)
(-1.35112e-39 5.63246e-40 0)
(-1.23282e-38 1.031e-38 0)
(-1.92787e-37 1.03752e-37 0)
(-7.0674e-37 1.58053e-36 0)
(-8.48494e-36 1.3926e-36 0)
(-7.97106e-36 -3.07684e-36 0)
(7.76451e-36 -2.98288e-36 0)
(7.76451e-36 2.98288e-36 0)
(-7.97106e-36 3.07684e-36 0)
(-8.48494e-36 -1.3926e-36 0)
(-7.0674e-37 -1.58053e-36 0)
(-1.92787e-37 -1.03752e-37 0)
(-1.23285e-38 -1.03099e-38 0)
(-1.35698e-39 -5.6121e-40 0)
(-1.53328e-40 1.13997e-43 0)
(-1.36248e-39 5.6312e-40 0)
(-1.23992e-38 1.03481e-38 0)
(-1.94062e-37 1.04275e-37 0)
(-7.17711e-37 1.59028e-36 0)
(-8.66531e-36 1.486e-36 0)
(-8.48358e-36 -1.60067e-36 0)
(-7.61435e-44 -3.18168e-36 0)
(8.48358e-36 -1.60066e-36 0)
(8.66531e-36 1.48603e-36 0)
(7.17574e-37 1.59006e-36 0)
(1.93936e-37 8.52741e-38 0)
(-1.18963e-39 1.68899e-39 0)
(-1.54991e-38 1.6437e-38 0)
(-3.82503e-38 2.40928e-37 0)
(-3.4132e-37 2.11465e-37 0)
(-3.17593e-37 -4.70812e-37 0)
(3.17593e-37 -4.70812e-37 0)
(3.4132e-37 2.11465e-37 0)
(3.82499e-38 2.40928e-37 0)
(1.54975e-38 1.64443e-38 0)
(1.09439e-39 1.86011e-39 0)
(1.26254e-40 1.05791e-40 0)
(7.50135e-42 8.07553e-42 0)
(-4.77322e-48 8.27334e-43 0)
(-7.50145e-42 8.07559e-42 0)
(-1.26255e-40 1.05792e-40 0)
(-1.09442e-39 1.86013e-39 0)
(-1.54981e-38 1.64447e-38 0)
(-3.82575e-38 2.40937e-37 0)
(-3.41447e-37 2.11572e-37 0)
(-3.18694e-37 -4.68944e-37 0)
(3.01968e-37 -4.54262e-37 0)
(3.01968e-37 4.54262e-37 0)
(-3.18694e-37 4.68944e-37 0)
(-3.41447e-37 -2.11572e-37 0)
(-3.82575e-38 -2.40937e-37 0)
(-1.54981e-38 -1.64447e-38 0)
(-1.09445e-39 -1.86011e-39 0)
(-1.26842e-40 -1.05376e-40 0)
(-1.50939e-41 2.39667e-44 0)
(-1.27393e-40 1.05766e-40 0)
(-1.1014e-39 1.86774e-39 0)
(-1.56168e-38 1.65424e-38 0)
(-3.9225e-38 2.4269e-37 0)
(-3.55842e-37 2.26148e-37 0)
(-3.4132e-37 -2.44566e-37 0)
(-2.54431e-45 -4.85593e-37 0)
(3.4132e-37 -2.44566e-37 0)
(3.55844e-37 2.26149e-37 0)
(3.92507e-38 2.4262e-37 0)
(1.58478e-38 1.32615e-38 0)
(-1.23727e-40 1.57837e-40 0)
(-1.49318e-39 1.48695e-39 0)
(-2.16562e-39 2.02384e-38 0)
(-9.22528e-39 1.75832e-38 0)
(-8.45487e-39 -3.94953e-38 0)
(8.45487e-39 -3.94953e-38 0)
(9.22528e-39 1.75832e-38 0)
(2.16556e-39 2.02384e-38 0)
(1.49276e-39 1.48773e-39 0)
(1.10498e-40 1.74665e-40 0)
(1.3665e-41 1.04437e-41 0)
(8.31123e-43 8.1111e-43 0)
(-5.63171e-49 8.5796e-44 0)
(-8.31133e-43 8.11117e-43 0)
(-1.36652e-41 1.04438e-41 0)
(-1.10501e-40 1.74668e-40 0)
(-1.49283e-39 1.48777e-39 0)
(-2.1664e-39 2.02392e-38 0)
(-9.23901e-39 1.75937e-38 0)
(-8.56621e-39 -3.93199e-38 0)
(6.94838e-39 -3.79971e-38 0)
(6.94838e-39 3.79971e-38 0)
(-8.56621e-39 3.93199e-38 0)
(-9.23901e-39 -1.75937e-38 0)
(-2.1664e-39 -2.02392e-38 0)
(-1.49283e-39 -1.48777e-39 0)
(-1.10505e-40 -1.74665e-40 0)
(-1.37321e-41 -1.04006e-41 0)
(-1.67276e-42 2.50516e-45 0)
(-1.37947e-41 1.0441e-41 0)
(-1.11273e-40 1.7543e-40 0)
(-1.50565e-39 1.4974e-39 0)
(-2.26317e-39 2.04034e-38 0)
(-1.06204e-38 1.8906e-38 0)
(-9.22528e-39 -2.05797e-38 0)
(7.27822e-46 -4.08278e-38 0)
(9.2253e-39 -2.05797e-38 0)
(1.06209e-38 1.89059e-38 0)
(2.27124e-39 2.03954e-38 0)
(1.5618e-39 1.18973e-39 0)
(-9.95377e-42 1.71528e-41 0)
(-1.12779e-40 1.52696e-40 0)
(-1.20101e-40 2.03366e-39 0)
(-7.71532e-41 1.76284e-39 0)
(-6.20646e-41 -3.96956e-39 0)
(6.20646e-41 -3.96956e-39 0)
(7.7153e-41 1.76284e-39 0)
(1.20096e-40 2.03366e-39 0)
(1.12733e-40 1.52798e-40 0)
(8.77874e-42 1.89984e-41 0)
(1.11841e-42 1.1609e-42 0)
(7.01426e-44 9.26074e-44 0)
(-5.01773e-50 9.92071e-45 0)
(-7.01435e-44 9.26082e-44 0)
(-1.11843e-42 1.16092e-42 0)
(-8.77905e-42 1.89987e-41 0)
(-1.12739e-40 1.52803e-40 0)
(-1.20167e-40 2.03376e-39 0)
(-7.82772e-41 1.764e-39 0)
(-7.09141e-41 -3.95047e-39 0)
(-5.17923e-41 -3.81559e-39 0)
(-5.17923e-41 3.81559e-39 0)
(-7.09141e-41 3.95047e-39 0)
(-7.82772e-41 -1.764e-39 0)
(-1.20167e-40 -2.03376e-39 0)
(-1.12739e-40 -1.52803e-40 0)
(-8.77936e-42 -1.89984e-41 0)
(-1.12414e-42 -1.15593e-42 0)
(-1.41201e-43 2.93038e-46 0)
(-1.12948e-42 1.16059e-42 0)
(-8.84412e-42 1.90857e-41 0)
(-1.13786e-40 1.53872e-40 0)
(-1.27821e-40 2.05159e-39 0)
(-1.8216e-40 1.89771e-39 0)
(-7.7153e-41 -2.07077e-39 0)
(1.09125e-46 -4.10551e-39 0)
(7.71555e-41 -2.07077e-39 0)
(1.8221e-40 1.89768e-39 0)
(1.28678e-40 2.05053e-39 0)
(1.19418e-40 1.20654e-40 0)
(-8.03066e-43 1.52663e-42 0)
(-9.20699e-42 1.21853e-41 0)
(-8.10284e-42 1.56149e-40 0)
(1.64461e-41 1.34547e-40 0)
(1.59972e-41 -3.04588e-40 0)
(-1.59972e-41 -3.04588e-40 0)
(-1.6446e-41 1.34547e-40 0)
(8.10367e-42 1.56152e-40 0)
(9.19288e-42 1.22241e-41 0)
(7.30479e-43 1.55806e-42 0)
(9.5745e-44 9.81189e-44 0)
(6.08727e-45 7.92174e-45 0)
(-4.48671e-51 8.65622e-46 0)
(-6.08736e-45 7.92181e-45 0)
(-9.57468e-44 9.81202e-44 0)
(-7.30507e-43 1.55809e-42 0)
(-9.19338e-42 1.22245e-41 0)
(-8.10981e-42 1.5616e-40 0)
(1.63498e-41 1.34646e-40 0)
(1.52605e-41 -3.03022e-40 0)
(-2.52863e-41 -2.92265e-40 0)
(-2.52863e-41 2.92265e-40 0)
(1.52605e-41 3.03022e-40 0)
(1.63498e-41 -1.34646e-40 0)
(-8.10981e-42 -1.5616e-40 0)
(-9.19338e-42 -1.22245e-41 0)
(-7.30535e-43 -1.55806e-42 0)
(-9.62486e-44 -9.76848e-44 0)
(-1.22557e-44 2.57044e-47 0)
(-9.67177e-44 9.80917e-44 0)
(-7.36149e-43 1.56552e-42 0)
(-9.28299e-42 1.23147e-41 0)
(-8.74404e-42 1.57619e-40 0)
(7.8935e-42 1.45304e-40 0)
(1.6446e-41 -1.59193e-40 0)
(1.42136e-47 -3.15435e-40 0)
(-1.64457e-41 -1.59193e-40 0)
(-7.88823e-42 1.453e-40 0)
(8.83367e-42 1.57522e-40 0)
(9.85071e-42 9.59622e-42 0)
(1.00059e-42 4.16385e-42 0)
(-6.6701e-43 4.80388e-43 0)
(-5.02365e-43 1.28076e-41 0)
(1.66395e-42 1.1046e-41 0)
(1.58979e-42 -2.50609e-41 0)
(-1.58965e-42 -2.50607e-41 0)
(-1.66226e-42 1.10488e-41 0)
(5.26057e-43 1.28478e-41 0)
(6.44738e-43 1.02125e-42 0)
(5.26613e-44 1.33591e-43 0)
(6.99691e-45 8.5263e-45 0)
(4.53321e-46 6.96665e-46 0)
(-3.43961e-52 7.67523e-47 0)
(-4.53327e-46 6.96671e-46 0)
(-6.99704e-45 8.52642e-45 0)
(-5.26634e-44 1.33594e-43 0)
(-6.44776e-43 1.02129e-42 0)
(-5.26515e-43 1.28485e-41 0)
(1.65522e-42 1.10574e-41 0)
(1.53654e-42 -2.49264e-41 0)
(-2.24143e-42 -2.40309e-41 0)
(-2.24143e-42 2.40309e-41 0)
(1.53654e-42 2.49264e-41 0)
(1.65522e-42 -1.10574e-41 0)
(-5.26515e-43 -1.28485e-41 0)
(-6.44776e-43 -1.02129e-42 0)
(-5.26655e-44 -1.33591e-43 0)
(-7.03464e-45 -8.48781e-45 0)
(-9.12796e-46 2.28927e-48 0)
(-7.06976e-45 8.52389e-45 0)
(-5.30834e-44 1.34247e-43 0)
(-6.51315e-43 1.02912e-42 0)
(-5.72141e-43 1.29735e-41 0)
(1.0636e-42 1.19444e-41 0)
(1.66226e-42 -1.31085e-41 0)
(1.30299e-48 -2.59641e-41 0)
(-1.66223e-42 -1.31085e-41 0)
(-1.06317e-42 1.19439e-41 0)
(5.79371e-43 1.29643e-41 0)
(6.96338e-43 7.96587e-43 0)
(4.63784e-41 8.36408e-42 0)
(-7.19018e-45 -6.71992e-42 0)
(4.38923e-43 3.93791e-43 0)
(1.62334e-43 7.45814e-43 0)
(1.27567e-43 -1.76442e-42 0)
(-1.25402e-43 -1.76306e-42 0)
(-1.31793e-43 7.74526e-43 0)
(3.64543e-44 9.04256e-43 0)
(4.60714e-44 7.37542e-44 0)
(3.80966e-45 9.77101e-45 0)
(5.12129e-46 6.35473e-46 0)
(3.34826e-47 5.22334e-47 0)
(-2.56815e-53 5.82642e-48 0)
(-3.34831e-47 5.22339e-47 0)
(-5.12138e-46 6.35482e-46 0)
(-3.80982e-45 9.77119e-45 0)
(-4.60742e-44 7.37572e-44 0)
(-3.64878e-44 9.04308e-43 0)
(1.31283e-43 7.75167e-43 0)
(1.21666e-43 -1.75318e-42 0)
(-1.72096e-43 -1.68861e-42 0)
(-1.72096e-43 1.68861e-42 0)
(1.21666e-43 1.75318e-42 0)
(1.31283e-43 -7.75167e-43 0)
(-3.64878e-44 -9.04308e-43 0)
(-4.60742e-44 -7.37571e-44 0)
(-3.80998e-45 -9.77101e-45 0)
(-5.14928e-46 -6.32551e-46 0)
(-6.74243e-47 1.74123e-49 0)
(-5.17533e-46 6.35289e-46 0)
(-3.84083e-45 9.82014e-45 0)
(-4.65526e-44 7.43404e-44 0)
(-3.97826e-44 9.13441e-43 0)
(8.90552e-44 8.39098e-43 0)
(1.31798e-43 -9.23314e-43 0)
(1.13922e-49 -1.82816e-42 0)
(-1.31796e-43 -9.23315e-43 0)
(-8.902e-44 8.39059e-43 0)
(4.03582e-44 9.12722e-43 0)
(5.01072e-44 5.73663e-44 0)
(1.68746e-39 1.12193e-39 0)
(1.0578e-40 -1.14645e-40 0)
(7.49499e-42 -8.60435e-42 0)
(4.20422e-43 -3.44772e-43 0)
(2.96654e-44 -1.44486e-43 0)
(-7.26031e-45 -1.26538e-43 0)
(-8.68047e-45 5.51404e-44 0)
(2.31489e-45 6.45235e-44 0)
(2.96331e-45 5.32459e-45 0)
(2.49482e-46 7.12955e-46 0)
(3.37203e-47 4.67856e-47 0)
(2.23231e-48 3.86109e-48 0)
(-1.5927e-54 4.32971e-49 0)
(-2.23234e-48 3.86113e-48 0)
(-3.37208e-47 4.67863e-47 0)
(-2.4949e-46 7.1297e-46 0)
(-2.96342e-45 5.32485e-45 0)
(-2.31515e-45 6.45285e-44 0)
(8.69264e-45 5.52187e-44 0)
(8.0423e-45 -1.25068e-43 0)
(-1.12912e-44 -1.20413e-43 0)
(-1.12912e-44 1.20413e-43 0)
(8.0423e-45 1.25068e-43 0)
(8.69264e-45 -5.52187e-44 0)
(-2.31515e-45 -6.45285e-44 0)
(-2.96342e-45 -5.32485e-45 0)
(-2.495e-46 -7.12956e-46 0)
(-3.39072e-47 -4.65685e-47 0)
(-4.49553e-48 1.29419e-50 0)
(-3.40811e-47 4.6772e-47 0)
(-2.51557e-46 7.16587e-46 0)
(-2.99489e-45 5.36777e-45 0)
(-2.53072e-45 6.51945e-44 0)
(5.98114e-45 5.98265e-44 0)
(8.72655e-45 -6.5915e-44 0)
(8.50263e-51 -1.30483e-43 0)
(-8.72638e-45 -6.59151e-44 0)
(-5.97865e-45 5.98232e-44 0)
(2.57059e-45 6.5139e-44 0)
(3.24052e-45 4.13129e-45 0)
(3.27388e-35 -3.09098e-34 0)
(8.8158e-35 -4.07545e-35 0)
(8.91568e-36 -2.75003e-35 0)
(3.2864e-36 -1.99758e-36 0)
(2.36901e-37 -2.13053e-37 0)
(2.80455e-38 -1.28705e-38 0)
(1.75102e-39 -9.78432e-40 0)
(1.408e-40 -5.37229e-41 0)
(7.88e-42 -3.35922e-42 0)
(5.04559e-43 -1.75686e-43 0)
(2.48704e-44 -5.62204e-45 0)
(1.71848e-45 9.34337e-45 0)
(8.63032e-46 -2.9605e-45 0)
(-2.87521e-46 -6.45226e-45 0)
(-4.89574e-46 2.98969e-45 0)
(1.31005e-46 3.51492e-45 0)
(1.70967e-46 3.27259e-46 0)
(1.60774e-47 4.59929e-47 0)
(2.2529e-48 3.34012e-48 0)
(1.64144e-49 2.89016e-49 0)
(1.41135e-50 1.77616e-50 0)
(8.66851e-52 1.17773e-51 0)
(5.70699e-53 6.33989e-53 0)
(3.23113e-54 3.33812e-54 0)
(3.23584e-54 -3.34623e-54 0)
(5.71483e-53 -6.35591e-53 0)
(8.67366e-52 -1.18106e-51 0)
(1.4099e-50 -1.78211e-50 0)
(1.63096e-49 -2.90119e-49 0)
(2.21597e-48 -3.35639e-48 0)
(1.49671e-47 -4.6256e-47 0)
(1.41191e-46 -3.30109e-46 0)
(-5.88918e-46 -3.55271e-45 0)
(-1.76617e-44 -3.16082e-45 0)
(-3.6126e-43 5.72571e-45 0)
(-7.94475e-42 5.37723e-44 0)
(-1.46844e-40 1.02022e-42 0)
(-3.0124e-39 1.77116e-41 0)
(-4.79238e-38 2.75011e-40 0)
(-9.19671e-37 8.22909e-40 0)
(-1.1921e-35 -1.61704e-37 0)
(-2.15668e-34 -1.04927e-35 0)
(-1.94405e-33 -4.16116e-34 0)
(-3.20271e-32 -1.16708e-32 0)
(6.62532e-35 -1.87865e-31 0)
(3.20824e-32 -1.17021e-32 0)
(2.11027e-33 -2.26732e-33 0)
(3.19398e-33 -6.01489e-34 0)
(2.20223e-34 -5.15526e-34 0)
(3.65712e-35 -3.27018e-35 0)
(2.36494e-36 -3.4524e-36 0)
(2.37484e-37 -1.9537e-37 0)
(1.41942e-38 -1.47569e-38 0)
(1.07459e-39 -7.78983e-40 0)
(5.89703e-41 -4.83859e-41 0)
(3.68183e-42 -2.37601e-42 0)
(1.85625e-43 -1.27447e-43 0)
(1.00332e-44 -5.39848e-45 0)
(4.95186e-46 -4.04942e-46 0)
(1.17149e-47 -2.90373e-46 0)
(-1.69934e-47 1.28502e-46 0)
(4.81832e-48 1.51847e-46 0)
(6.2608e-48 1.42287e-47 0)
(5.95798e-49 1.9935e-48 0)
(8.40372e-50 1.45177e-49 0)
(6.17793e-51 1.24979e-50 0)
(5.32825e-52 7.6784e-52 0)
(3.29145e-53 5.05999e-53 0)
(2.16855e-54 2.71685e-54 0)
(1.23167e-55 1.42111e-55 0)
(1.24089e-55 -1.42153e-55 0)
(2.19478e-54 -2.71465e-54 0)
(3.36085e-53 -5.04684e-53 0)
(5.51454e-52 -7.62452e-52 0)
(6.65684e-51 -1.23188e-50 0)
(9.64605e-50 -1.39736e-49 0)
(9.00094e-49 -1.84047e-48 0)
(1.37553e-47 -1.02203e-47 0)
(1.75905e-46 -5.01693e-47 0)
(3.92778e-45 2.24907e-45 0)
(8.21629e-44 5.57841e-44 0)
(1.75799e-42 1.16412e-42 0)
(3.26416e-41 2.50449e-41 0)
(6.44941e-40 4.57498e-40 0)
(1.03557e-38 8.48167e-39 0)
(1.8883e-37 9.03893e-38 0)
(2.48686e-36 -7.51782e-37 0)
(4.18382e-35 -1.40059e-34 0)
(3.8817e-34 -6.63404e-33 0)
(5.69507e-33 -2.2689e-31 0)
(2.9581e-33 -5.16989e-30 0)
(-2.53208e-33 -2.27707e-31 0)
(7.45848e-32 -4.50332e-32 0)
(8.07315e-32 -2.0513e-33 0)
(4.07498e-33 -6.27615e-35 0)
(6.78672e-34 -1.45582e-36 0)
(3.89345e-35 -1.90218e-38 0)
(3.8992e-36 1.41915e-40 0)
(2.1884e-37 3.76177e-41 0)
(1.6496e-38 2.11763e-42 0)
(8.70901e-40 1.21671e-43 0)
(5.41237e-41 5.53989e-45 0)
(2.65875e-42 2.75691e-46 0)
(1.42859e-43 2.71437e-47 0)
(6.51979e-45 -4.2234e-48 0)
(3.11118e-46 -1.03646e-47 0)
(1.25311e-47 4.80541e-48 0)
(7.56884e-49 5.66744e-48 0)
(2.64605e-49 5.37641e-49 0)
(2.40274e-50 7.5631e-50 0)
(3.28388e-51 5.55545e-51 0)
(2.40583e-52 4.78918e-52 0)
(2.05843e-53 2.9577e-53 0)
(1.26944e-54 1.94823e-54 0)
(8.31153e-56 1.04865e-55 0)
(4.941e-57 5.47441e-57 0)
(1.20479e-56 -5.50713e-57 0)
(3.05331e-55 -1.05718e-55 0)
(7.72385e-54 -1.97175e-54 0)
(2.0418e-52 -3.02016e-53 0)
(5.21727e-51 -4.95866e-52 0)
(1.35935e-49 -5.993e-51 0)
(3.35809e-48 -8.7139e-50 0)
(8.32469e-47 -8.2041e-49 0)
(1.91791e-45 -1.27501e-47 0)
(4.4403e-44 -1.66659e-46 0)
(9.31683e-43 -3.79815e-45 0)
(1.99955e-41 -7.901e-44 0)
(3.7436e-40 -1.72098e-42 0)
(7.42644e-39 -3.05674e-41 0)
(1.20687e-37 -5.41525e-40 0)
(2.21261e-36 -2.82913e-39 0)
(2.96991e-35 2.3979e-37 0)
(5.03981e-34 1.91158e-35 0)
(4.85854e-33 8.37276e-34 0)
(7.26805e-32 2.75841e-32 0)
(8.12073e-32 6.15333e-31 0)
(1.25619e-32 2.75613e-32 0)
(3.1706e-33 -4.45808e-32 0)
(2.65877e-33 -1.56434e-33 0)
(1.9132e-34 4.47475e-34 0)
(3.29421e-35 3.10654e-35 0)
(2.17354e-36 3.42484e-36 0)
(2.21904e-37 1.95151e-37 0)
(1.34e-38 1.47732e-38 0)
(1.02319e-39 7.80098e-40 0)
(5.64907e-41 4.84526e-41 0)
(3.54532e-42 2.37881e-42 0)
(1.79482e-43 1.27748e-43 0)
(9.72194e-45 5.82722e-45 0)
(4.53344e-46 2.78174e-46 0)
(2.18008e-47 1.14102e-47 0)
(9.17032e-49 6.97765e-49 0)
(4.74263e-50 2.40376e-49 0)
(1.00984e-50 2.17804e-50 0)
(8.81525e-52 2.9672e-51 0)
(1.17058e-52 2.17184e-52 0)
(8.57823e-54 1.85634e-53 0)