/*--------------------------------*- C++ -*----------------------------------*\
| =========                 |                                                 |
| \\      /  F ield         | OpenFOAM: The Open Source CFD Toolbox           |
|  \\    /   O peration     | Version:  2.4.0                                 |
|   \\  /    A nd           | Web:      www.OpenFOAM.org                      |
|    \\/     M anipulation  |                                                 |
\*---------------------------------------------------------------------------*/
FoamFile
{
    version     2.0;
    format      ascii;
    class       surfaceScalarField;
    location    "0.7";
    object      phi;
}
// * * * * * * * * * * * * * * * * * * * * * * * * * * * * * * * * * * * * * //

dimensions      [0 3 -1 0 0 0 0];

internalField   nonuniform List<scalar> 
15214
(
3.38957e-39
7.80571e-41
1.82043e-38
4.52713e-40
2.59859e-38
3.16365e-39
5.51947e-37
2.38778e-39
6.202e-41
-6.08982e-39
-5.51476e-37
-6.08058e-39
-2.21645e-38
2.47402e-39
3.46862e-39
3.69414e-39
4.1259e-38
4.07896e-39
5.81395e-37
5.71566e-39
5.7397e-37
-3.1542e-39
-5.03876e-37
-8.47758e-39
2.20847e-38
2.38776e-39
5.55817e-37
5.5512e-39
2.64562e-38
-2.4752e-39
1.82715e-38
-3.17422e-39
3.4129e-39
-4.53686e-40
4.08784e-40
-7.70429e-41
5.57973e-41
-9.36653e-42
6.23362e-42
-1.1761e-42
7.12975e-43
-1.26641e-43
7.26948e-44
-1.3471e-44
7.38129e-45
-1.30433e-45
1.36933e-45
-1.12179e-46
7.4375e-45
1.13104e-46
7.3314e-44
1.31427e-45
7.19601e-43
1.35831e-44
6.29887e-42
1.27821e-43
5.64362e-41
1.18825e-42
4.1429e-40
9.47946e-42
3.46232e-39
7.80897e-41
1.86231e-38
4.61849e-40
2.94478e-38
3.24165e-39
5.70564e-37
2.84948e-39
2.94478e-38
-2.84948e-39
1.86231e-38
-3.24165e-39
3.46232e-39
-4.61849e-40
4.1429e-40
-7.80897e-41
5.64362e-41
-9.47955e-42
6.29856e-42
-1.18903e-42
7.17684e-43
-1.34066e-43
6.48211e-44
-5.51269e-44
-2.77975e-44
-2.65089e-43
-2.60167e-44
-1.13018e-42
3.66365e-44
-4.88271e-42
-7.65175e-43
1.02374e-39
-8.7217e-41
5.33357e-39
-6.77504e-40
3.21304e-38
-4.4948e-39
5.17901e-38
-3.31779e-39
2.2223e-41
8.60928e-39
-5.16266e-38
8.5971e-39
-3.09536e-38
-3.4364e-39
1.05567e-39
-5.28093e-39
3.65958e-38
-5.86522e-39
8.49734e-38
-8.03889e-39
5.82996e-38
4.48243e-39
-1.31278e-38
1.19271e-38
6.53161e-39
-3.31777e-39
5.29839e-38
-7.81239e-39
3.22935e-38
3.43784e-39
5.35797e-39
4.50866e-39
1.03583e-39
6.79878e-40
1.41053e-40
1.06464e-40
1.98727e-41
1.23297e-41
2.35497e-42
1.43788e-42
2.75943e-43
1.46916e-43
2.90841e-44
1.48353e-44
3.00826e-45
1.38061e-45
5.70034e-46
1.14863e-46
3.03195e-45
-1.15757e-46
2.93415e-44
-1.39049e-45
2.78637e-43
-1.49501e-44
2.38102e-42
-1.4817e-43
2.0119e-41
-1.45132e-42
1.43126e-40
-1.24615e-41
1.05329e-39
-1.07752e-40
5.4786e-39
-6.9074e-40
3.31835e-38
-4.6025e-39
5.72661e-38
-4.00837e-39
3.31835e-38
4.00837e-39
5.4786e-39
4.6025e-39
1.05329e-39
6.9074e-40
1.43126e-40
1.07752e-40
2.01185e-41
1.24608e-41
2.37796e-42
1.44555e-42
2.59378e-43
1.0176e-43
-5.66758e-44
-2.97856e-43
-3.57267e-43
-2.01491e-42
-2.75037e-43
-8.79992e-42
3.62694e-43
-3.86011e-41
-6.03807e-42
2.37952e-40
-2.95795e-41
9.64354e-40
-2.16489e-40
4.44353e-39
-1.19534e-39
6.79387e-39
-8.22127e-40
6.55303e-42
2.27461e-39
-6.74999e-39
2.27016e-39
-4.16662e-39
-8.62723e-40
2.45494e-40
-1.44867e-39
5.21301e-39
-1.63374e-39
1.1482e-38
-2.09465e-39
8.0345e-39
1.19077e-39
-1.10307e-39
3.09672e-39
1.24717e-39
-8.22107e-40
7.07566e-39
-2.01733e-39
4.48723e-39
8.63268e-40
9.71274e-40
1.20038e-39
2.39688e-40
2.17289e-40
3.72405e-41
3.61724e-41
5.81699e-42
4.50816e-42
7.37294e-43
5.46112e-43
9.10181e-44
5.81704e-44
9.96625e-45
6.03104e-45
1.06288e-45
5.76669e-46
2.06167e-46
4.8824e-47
1.0716e-45
-4.92177e-47
1.00591e-44
-5.80952e-46
9.19668e-44
-6.07983e-45
7.46186e-43
-5.86932e-44
5.89783e-42
-5.51557e-43
3.78846e-41
-4.56019e-42
2.44747e-40
-3.66592e-41
1.00251e-39
-2.21239e-40
4.68819e-39
-1.23193e-39
7.79555e-39
-1.04329e-39
4.68819e-39
1.04329e-39
1.00251e-39
1.23193e-39
2.44747e-40
2.21239e-40
3.78842e-41
3.66587e-41
5.89426e-42
4.55552e-42
7.21958e-43
5.11642e-43
-6.2393e-44
-2.66523e-43
-6.88417e-43
-2.21812e-42
-2.9677e-42
-1.45966e-41
-2.28896e-42
-6.50969e-41
2.94024e-42
-2.91082e-40
-4.53732e-41
4.00135e-41
-9.76778e-42
1.28859e-40
-5.70124e-41
4.6867e-40
-2.91245e-40
6.82006e-40
-1.94607e-40
1.34247e-42
5.53245e-40
-6.73632e-40
5.51947e-40
-4.21483e-40
-2.05958e-40
4.13482e-41
-3.57623e-40
5.65862e-40
-4.05342e-40
1.19181e-39
-5.07062e-40
8.57839e-40
2.89497e-40
-3.61472e-41
7.4778e-40
1.77176e-40
-1.94517e-40
7.30157e-40
-4.85328e-40
4.76987e-40
2.06126e-40
1.30222e-40
2.92347e-40
4.01674e-41
5.66869e-41
7.0106e-42
1.0129e-41
1.18337e-42
1.33236e-42
1.58498e-43
1.69072e-43
2.03264e-44
1.86718e-44
2.29543e-45
1.99336e-45
2.50496e-46
1.95105e-46
4.95316e-47
1.68085e-47
2.52619e-46
-1.69481e-47
2.31771e-45
-1.96603e-46
2.05494e-44
-2.01016e-45
1.6054e-43
-1.88483e-44
1.20135e-42
-1.70867e-43
7.14828e-42
-1.349e-42
4.11877e-41
-1.0279e-41
1.36008e-40
-5.78462e-41
5.09826e-40
-3.01107e-40
8.17832e-40
-2.52344e-40
5.09826e-40
2.52344e-40
1.36008e-40
3.01107e-40
4.11873e-41
5.78459e-41
7.14502e-42
1.0276e-41
1.17501e-42
1.31953e-42
-2.03384e-44
-8.39045e-44
-1.14821e-42
-2.08796e-42
-5.37261e-42
-1.46688e-41
-2.32258e-41
-9.83936e-41
-1.80911e-41
-4.5115e-40
2.25611e-41
-2.06004e-39
-3.20678e-40
6.14394e-42
-1.32872e-41
1.52525e-41
-1.53991e-41
3.74834e-41
-5.58388e-41
4.95443e-41
-3.49323e-41
2.57112e-43
1.00192e-40
-4.80472e-41
1.00024e-40
-2.99437e-41
-3.66347e-41
6.48444e-42
-6.57986e-41
4.77683e-41
-7.49481e-41
9.33758e-41
-9.14994e-41
7.20726e-41
5.24861e-41
1.0721e-41
1.34611e-40
2.28103e-41
-3.42874e-41
5.71659e-41
-8.70535e-41
3.88734e-41
3.66692e-41
1.53793e-41
5.30959e-41
6.26553e-42
1.09682e-41
1.20951e-42
2.06493e-42
2.19401e-43
2.84378e-43
3.07472e-44
3.73758e-44
4.08e-45
4.25315e-45
4.72697e-46
4.64434e-46
5.26406e-47
4.63507e-47
1.05763e-47
4.04865e-48
5.30991e-47
-4.08312e-48
4.77446e-46
-4.67165e-47
4.12677e-45
-4.68479e-46
3.11667e-44
-4.29501e-45
2.22998e-43
-3.7793e-44
1.23607e-42
-2.88158e-43
6.45324e-42
-2.09796e-42
1.63612e-41
-1.12142e-41
4.38676e-41
-5.48679e-41
6.58382e-41
-4.54974e-41
4.38676e-41
4.54974e-41
1.63609e-41
5.48677e-41
6.45064e-42
1.12125e-41
1.21365e-42
2.08025e-42
3.95494e-44
1.16309e-43
-1.24659e-42
-1.46957e-42
-8.39996e-42
-1.27001e-41
-3.94454e-41
-9.05564e-41
-1.74074e-40
-6.25307e-40
-1.37221e-40
-2.9748e-39
1.65391e-40
-1.39844e-38
-2.16633e-39
-1.10552e-43
-8.08442e-41
2.63441e-42
-3.26697e-41
2.54503e-42
-3.01423e-41
2.19384e-42
-1.00872e-41
9.40872e-44
1.6135e-41
-1.70576e-42
1.6828e-41
-9.72247e-43
-6.16128e-42
9.25788e-43
-1.12571e-41
3.04256e-42
-1.28544e-41
4.91254e-42
-1.54727e-41
4.66399e-42
8.88741e-42
2.86772e-42
2.27183e-41
2.76093e-42
-5.70904e-42
3.04855e-42
-1.465e-41
2.27577e-42
6.15087e-42
1.69232e-42
9.00432e-42
8.90061e-43
1.93323e-42
1.86007e-43
3.81048e-43
3.55965e-44
5.43963e-44
5.17194e-45
7.37225e-45
7.04855e-46
8.59649e-46
8.3422e-47
9.5723e-47
9.44631e-48
9.70716e-48
1.92417e-48
8.57927e-49
9.53055e-48
-8.65384e-49
8.4285e-47
-9.78553e-48
7.13232e-46
-9.65803e-47
5.24581e-45
-8.68405e-46
3.6216e-44
-7.45809e-45
1.90455e-43
-5.51583e-44
9.20318e-43
-3.87541e-43
1.84131e-42
-1.98006e-42
2.96943e-42
-9.32924e-42
3.77916e-42
-7.68825e-42
2.96926e-42
7.68817e-42
1.83962e-42
9.32844e-42
9.04068e-43
1.97129e-42
4.86217e-44
2.97877e-43
-1.14106e-42
-8.27172e-43
-8.33777e-42
-7.86679e-42
-5.60308e-41
-6.78992e-41
-2.69757e-40
-4.98905e-40
-1.21865e-39
-3.57439e-39
-9.73768e-40
-1.78843e-38
1.12612e-39
-8.66536e-38
-1.34386e-38
-5.69661e-42
-5.17762e-40
8.11748e-42
-1.99076e-40
3.78344e-42
-1.41303e-40
1.69614e-42
-2.90979e-41
3.93566e-43
-2.92522e-42
2.68506e-43
1.77858e-42
1.57051e-43
-1.02635e-42
1.30149e-43
-1.72829e-42
9.91998e-44
-1.96573e-42
-2.73196e-44
-2.33387e-42
1.73374e-43
1.34235e-42
5.03053e-43
3.4204e-42
3.39005e-43
-8.48578e-43
-4.67284e-45
-2.19989e-42
3.78287e-44
9.20609e-43
1.89778e-43
1.36195e-42
1.2319e-43
3.02615e-43
2.7213e-44
6.18422e-44
5.42108e-45
9.09838e-45
8.09448e-46
1.26389e-45
1.12698e-46
1.50444e-46
1.35671e-47
1.70252e-47
1.55754e-48
1.75045e-48
3.20841e-49
1.56261e-49
1.5717e-48
-1.57644e-49
1.37109e-47
-1.76487e-48
1.14077e-46
-1.71813e-47
8.2144e-46
-1.52021e-46
5.51989e-45
-1.27913e-45
2.79067e-44
-9.23145e-45
1.27774e-43
-6.29522e-44
2.11343e-43
-3.10415e-43
1.3217e-43
-1.4144e-42
5.09163e-44
-1.15887e-42
1.31229e-43
1.15853e-42
2.01691e-43
1.41085e-42
3.37573e-44
2.71175e-43
-8.04476e-43
-3.43752e-43
-7.03175e-42
-4.0663e-42
-5.09637e-41
-3.71911e-41
-3.51695e-40
-3.30992e-40
-1.7484e-39
-2.5358e-39
-8.16047e-39
-1.91847e-38
-6.6249e-39
-1.02941e-37
7.3173e-39
-5.2458e-37
-8.04056e-38
-1.88369e-41
-3.18274e-39
6.72519e-41
-1.17364e-39
2.81831e-41
-8.296e-40
1.28855e-41
-1.63133e-40
2.619e-42
-3.02891e-41
5.52609e-43
-3.88718e-42
1.1079e-43
-6.9807e-43
2.68697e-44
-3.13127e-43
-8.01761e-45
-2.91432e-43
-5.14796e-44
-3.35258e-43
-9.2409e-45
1.92452e-43
7.28678e-44
4.89565e-43
4.15111e-44
-1.2029e-43
-2.93436e-44
-3.142e-43
-1.39642e-44
1.3125e-43
2.17446e-44
1.95568e-43
1.62127e-44
4.45515e-44
3.72386e-45
9.37587e-45
7.63551e-46
1.4124e-45
1.16499e-46
2.00198e-46
1.64975e-47
2.42291e-47
2.01448e-48
2.77886e-48
2.33933e-49
2.88955e-49
4.86547e-50
2.601e-50
2.36095e-49
-2.62437e-50
2.03625e-48
-2.91373e-49
1.67043e-47
-2.80485e-48
1.18277e-46
-2.44892e-47
7.77985e-46
-2.02683e-46
3.82338e-45
-1.4338e-45
1.68555e-44
-9.5513e-45
2.46686e-44
-4.57586e-44
-1.74693e-45
-2.0349e-43
-2.57746e-44
-1.66108e-43
-6.38756e-45
1.64986e-43
-2.34504e-44
1.91456e-43
-4.58363e-43
-8.91985e-44
-4.27369e-42
-1.41023e-42
-3.69285e-41
-1.45199e-41
-2.7451e-40
-1.36353e-40
-1.95453e-39
-1.2655e-39
-1.011e-38
-1.03314e-38
-4.88686e-38
-8.44553e-38
-4.03597e-38
-5.04573e-37
4.20185e-38
-2.68954e-36
-4.15722e-37
1.46792e-40
-1.74521e-38
5.89728e-40
-6.54294e-39
2.11602e-40
-4.75661e-39
8.72954e-41
-8.94865e-40
1.68758e-41
-1.61653e-40
3.11492e-42
-2.15919e-41
4.45699e-43
-2.82076e-42
6.11926e-44
-3.48468e-43
4.35016e-45
-7.25504e-44
-8.73896e-45
-4.81842e-44
-3.06088e-45
2.54702e-44
9.66237e-45
6.54371e-44
5.08836e-45
-1.59452e-44
-5.47599e-45
-4.19358e-44
-2.94219e-45
1.74852e-44
2.55848e-45
2.62309e-44
2.06538e-45
6.10785e-45
4.87035e-46
1.31549e-45
1.02009e-46
2.02092e-46
1.58263e-47
2.91144e-47
2.27178e-48
3.57296e-48
2.80617e-49
4.14353e-49
3.28957e-50
4.35027e-50
6.89643e-51
3.94345e-51
3.32039e-50
-3.97934e-51
2.83699e-49
-4.3872e-50
2.3008e-48
-4.18296e-49
1.60732e-47
-3.61211e-48
1.03987e-46
-2.94849e-47
5.00443e-46
-2.05249e-46
2.14994e-45
-1.34105e-45
2.92561e-45
-6.2814e-45
-1.55739e-45
-2.73558e-44
-7.05405e-45
-2.24564e-44
-2.21558e-44
1.92919e-44
-2.13615e-43
-7.01174e-45
-2.17488e-42
-3.85528e-43
-2.00039e-41
-4.2005e-42
-1.77474e-40
-4.42827e-41
-1.3621e-39
-4.33441e-40
-1.01133e-38
-4.31207e-39
-5.48874e-38
-3.88609e-38
-2.81258e-37
-3.6042e-37
-2.36605e-37
-2.4971e-36
2.32802e-37
-1.48399e-35
-2.1848e-36
3.77885e-39
-9.37763e-38
5.28963e-39
-3.03039e-38
1.53013e-39
-2.12249e-38
5.31145e-40
-3.81617e-39
9.62592e-41
-6.55545e-40
1.69155e-41
-8.45295e-41
2.32216e-42
-1.0611e-41
3.04858e-43
-1.16895e-42
3.45969e-44
-1.2943e-43
2.5312e-45
-1.85475e-44
-9.76821e-47
2.561e-45
1.22599e-45
9.29037e-45
6.09777e-46
-2.28013e-45
-7.54016e-46
-6.008e-45
-4.18741e-46
2.50139e-45
2.98157e-46
3.77188e-45
2.50887e-46
8.92931e-46
6.03402e-47
1.95717e-46
1.28447e-47
3.05179e-47
2.02054e-48
4.45159e-48
2.93294e-49
5.52199e-49
3.65874e-50
6.45904e-50
4.32359e-51
6.8323e-51
9.12695e-52
6.22725e-52
4.36419e-51
-6.28454e-52
3.69891e-50
-6.89099e-51
2.97015e-49
-6.52137e-50
2.05141e-48
-5.58355e-49
1.30815e-47
-4.50949e-48
6.18012e-47
-3.10081e-47
2.58241e-46
-1.99659e-46
3.02105e-46
-9.19647e-46
-7.58181e-46
-3.94643e-45
-6.86351e-45
-3.32448e-45
-6.93203e-44
1.49781e-45
-7.31353e-43
-1.63309e-44
-7.49613e-42
-2.38225e-43
-7.05131e-41
-2.71437e-42
-6.44146e-40
-3.20372e-41
-5.13206e-39
-3.85703e-40
-3.98288e-38
-5.18743e-39
-2.29058e-37
-6.85743e-38
-1.2412e-36
-8.64151e-37
-1.06004e-36
-8.26246e-36
9.41045e-37
-5.19972e-35
-7.97406e-36
-2.6897e-39
-6.1855e-41
-1.49774e-38
-3.7635e-40
-2.17828e-38
-2.90045e-39
-5.04472e-37
-2.25149e-39
1.36403e-45
5.59666e-39
5.04472e-37
5.59666e-39
2.17829e-38
-2.25148e-39
1.49803e-38
-2.9004e-39
2.69871e-39
-3.76146e-40
2.9833e-40
-6.08808e-41
3.87857e-41
-6.84491e-42
3.59939e-42
-8.2276e-43
-3.59977e-42
-1.63545e-43
-3.87897e-41
-8.22827e-43
-2.98373e-40
-6.84566e-42
-2.69915e-39
-6.08891e-41
-1.49844e-38
-3.76228e-40
-2.18222e-38
-2.90122e-39
-5.04774e-37
-2.25841e-39
-2.73798e-39
5.53496e-39
4.89189e-37
5.21359e-39
-2.73798e-39
-5.21359e-39
-5.04774e-37
-5.53496e-39
-2.18222e-38
2.25841e-39
-1.49844e-38
2.90122e-39
-2.69919e-39
3.76228e-40
-2.98818e-40
6.08807e-41
-4.29066e-41
6.76246e-42
-4.32645e-41
-7.46751e-45
-3.0241e-40
-6.83662e-42
-2.73394e-39
-6.16128e-41
-1.52435e-38
-3.82249e-40
-2.42185e-38
-2.95518e-39
-5.17016e-37
-2.57285e-39
-9.23822e-39
3.01763e-39
9.23778e-39
5.9242e-39
5.17013e-37
3.01756e-39
2.41798e-38
-2.57366e-39
1.50316e-38
-2.96054e-39
-4.0741e-40
-8.1058e-40
6.94534e-41
-4.40649e-39
5.6352e-40
-2.90756e-38
4.12332e-39
-4.77521e-38
3.13806e-39
7.31175e-46
-7.91906e-39
4.77521e-38
-7.91906e-39
2.90757e-38
3.13806e-39
4.40771e-39
4.1233e-39
8.16343e-40
5.64076e-40
1.02945e-40
8.35781e-41
1.37678e-41
8.956e-42
1.35436e-42
9.97104e-43
-1.35452e-42
1.88514e-43
-1.37695e-41
9.97172e-43
-1.02962e-40
8.95679e-42
-8.16514e-40
8.35872e-41
-4.40925e-39
5.64171e-40
-2.90896e-38
4.1243e-39
-4.78566e-38
3.14711e-39
-8.30299e-40
-7.83448e-39
4.32399e-38
-7.34593e-39
-8.30299e-40
7.34593e-39
-4.78566e-38
7.83448e-39
-2.90896e-38
-3.14711e-39
-4.40926e-39
-4.1243e-39
-8.16531e-40
-5.6417e-40
-1.03134e-40
-8.35781e-41
-1.53246e-41
-8.86103e-42
-1.54617e-41
8.20397e-45
-1.04485e-40
8.94693e-42
-8.28775e-40
8.44712e-41
-4.49825e-39
5.72128e-40
-2.98015e-38
4.19882e-39
-5.1434e-38
3.62661e-39
-2.53938e-38
-4.28431e-39
2.53936e-38
-8.41574e-39
5.14326e-38
-4.28424e-39
2.97866e-38
3.62708e-39
4.41155e-39
4.19496e-39
4.32986e-40
-1.90067e-40
2.34135e-41
-8.0095e-40
1.80664e-40
-4.04003e-39
1.10169e-39
-6.32322e-39
7.87923e-40
8.63604e-47
-2.10255e-39
6.32322e-39
-2.10255e-39
4.04004e-39
7.87922e-40
8.01129e-40
1.10168e-39
1.90462e-40
1.80856e-40
2.73427e-41
2.83999e-41
4.05209e-42
3.27787e-42
4.22987e-43
3.78706e-43
-4.23044e-43
7.46368e-44
-4.05266e-42
3.78734e-43
-2.73485e-41
3.2782e-42
-1.90519e-40
2.84036e-41
-8.01614e-40
1.80894e-40
-4.04415e-39
1.10206e-39
-6.35105e-39
7.91237e-40
-1.94576e-40
-2.07377e-39
5.49427e-39
-1.91838e-39
-1.94576e-40
1.91838e-39
-6.35105e-39
2.07377e-39
-4.04415e-39
-7.91237e-40
-8.01614e-40
-1.10206e-39
-1.90524e-40
-1.80893e-40
-2.74055e-41
-2.83999e-41
-4.5425e-42
-3.24025e-42
-4.58748e-42
3.32286e-45
-2.78274e-41
3.27419e-42
-1.94097e-40
2.87373e-41
-8.24843e-40
1.83792e-40
-4.20679e-39
1.12714e-39
-6.9576e-39
9.43315e-40
-3.40566e-39
-1.15626e-39
3.40563e-39
-2.26091e-39
6.95739e-39
-1.15624e-39
4.20468e-39
9.43483e-40
8.12422e-40
1.12588e-39
1.38516e-40
-3.22326e-41
6.53352e-42
-1.07645e-40
4.71814e-41
-4.28864e-40
2.68717e-40
-6.41846e-40
1.87554e-40
-2.36437e-48
-5.12605e-40
6.41846e-40
-5.12605e-40
4.28863e-40
1.87554e-40
1.07656e-40
2.68718e-40
3.21553e-41
4.72548e-41
5.17406e-42
7.9775e-42
8.27359e-43
9.71617e-43
9.0736e-44
1.17667e-43
-9.07497e-44
2.40168e-44
-8.27494e-43
1.17677e-43
-5.1754e-42
9.71729e-43
-3.21679e-41
7.97872e-42
-1.07761e-40
4.72669e-41
-4.29704e-40
2.68835e-40
-6.47125e-40
1.88538e-40
-3.29966e-41
-5.0451e-40
5.28911e-40
-4.64367e-40
-3.29966e-41
4.64367e-40
-6.47125e-40
5.0451e-40
-4.29704e-40
-1.88538e-40
-1.07761e-40
-2.68835e-40
-3.21693e-41
-4.72668e-41
-5.18817e-42
-7.97749e-42
-9.3326e-43
-9.59508e-43
-9.43252e-43
1.09799e-45
-5.27865e-42
9.70397e-43
-3.28934e-41
8.08184e-42
-1.12094e-40
4.81206e-41
-4.56581e-40
2.75829e-40
-7.21784e-40
2.27697e-40
-3.48925e-40
-2.84031e-40
3.48921e-40
-5.53625e-40
7.2177e-40
-2.84026e-40
4.56458e-40
2.27717e-40
1.11154e-40
2.75327e-40
3.57856e-41
-5.10609e-42
1.32285e-42
-1.27475e-41
9.13747e-42
-3.47887e-41
4.88728e-41
-4.78894e-41
3.32635e-41
-5.92294e-48
-9.316e-41
4.78894e-41
-9.316e-41
3.47878e-41
3.32636e-41
1.27439e-41
4.88734e-41
5.05689e-42
9.15663e-42
8.96979e-43
1.62974e-42
1.53987e-43
2.07829e-43
1.75693e-44
2.60718e-44
-1.75722e-44
5.47905e-45
-1.54016e-43
2.60742e-44
-8.97254e-43
2.07855e-43
-5.05943e-42
1.63002e-42
-1.27643e-41
9.1594e-42
-3.49446e-41
4.88995e-41
-4.88067e-41
3.34742e-41
-5.21369e-42
-9.15042e-41
3.42281e-41
-8.37928e-41
-5.21369e-42
8.37928e-41
-4.88067e-41
9.15042e-41
-3.49446e-41
-3.34742e-41
-1.27643e-41
-4.88995e-41
-5.05971e-42
-9.15937e-42
-8.99825e-43
-1.62973e-42
-1.74621e-43
-2.05065e-43
-1.76619e-43
2.55568e-46
-9.1734e-43
2.07544e-43
-5.1936e-42
1.65276e-42
-1.35045e-41
9.3411e-42
-3.90841e-41
5.03186e-41
-5.63369e-41
4.0975e-41
-2.63403e-41
-5.1998e-41
2.63403e-41
-1.01058e-40
5.63407e-41
-5.19975e-41
3.91185e-41
4.09742e-41
1.36157e-41
5.01889e-41
6.83974e-42
-7.34788e-43
2.42279e-43
-1.40676e-42
1.60525e-42
-2.0023e-42
8.29439e-42
-2.11695e-42
5.56093e-42
-8.30572e-49
-1.58191e-41
2.11694e-42
-1.58191e-41
2.00212e-42
5.56108e-42
1.40549e-42
8.29553e-42
7.22843e-43
1.61552e-42
1.3843e-43
3.01403e-43
2.50494e-44
3.9836e-44
2.95016e-45
5.15515e-45
-2.9507e-45
1.10925e-45
-2.50546e-44
5.15565e-45
-1.38478e-43
3.98415e-44
-7.23284e-43
3.01461e-43
-1.40893e-42
1.61608e-42
-2.02766e-42
8.30068e-42
-2.25881e-42
5.60147e-42
-7.48382e-43
-1.55125e-41
5.69581e-43
-1.41632e-41
-7.48382e-43
1.41632e-41
-2.25881e-42
1.55125e-41
-2.02766e-42
-5.60147e-42
-1.40893e-42
-8.30068e-42
-7.23333e-43
-1.61607e-42
-1.38924e-43
-3.01402e-43
-2.85319e-44
-3.92763e-44
-2.88757e-44
5.26552e-47
-1.41864e-43
3.97772e-44
-7.44996e-43
3.05939e-43
-1.52183e-42
1.65075e-42
-2.60863e-42
8.56169e-42
-2.91592e-42
6.91043e-42
-1.20313e-42
-8.8729e-42
1.20324e-42
-1.72042e-41
2.91733e-42
-8.87292e-42
2.62069e-42
6.90923e-42
1.57018e-42
8.53219e-42
1.18966e-42
-9.95731e-44
7.03962e-44
-1.57651e-43
1.99982e-43
-2.53292e-44
1.24803e-42
1.02227e-43
8.28772e-43
8.15118e-48
-2.39532e-42
-1.02169e-43
-2.39523e-42
2.56883e-44
8.29746e-43
1.57903e-43
1.25571e-42
1.00477e-43
2.53109e-43
2.03005e-44
4.89978e-44
3.82237e-45
6.67376e-45
4.61008e-46
8.85418e-46
-4.61098e-46
1.94362e-46
-3.82321e-45
8.85511e-46
-2.03084e-44
6.67477e-45
-1.00547e-43
4.90083e-44
-1.58441e-43
2.53207e-43
-2.9589e-44
1.2566e-42
8.13302e-44
8.36517e-43
-1.04378e-43
-2.34534e-42
-2.80913e-43
-2.13534e-42
-1.04378e-43
2.13534e-42
8.13302e-44
2.34534e-42
-2.95891e-44
-8.36517e-43
-1.58442e-43
-1.2566e-42
-1.00555e-43
-2.53206e-43
-2.03797e-44
-4.89978e-44
-4.36886e-45
-6.57568e-45
-4.42367e-45
9.35985e-48
-2.08391e-44
6.6633e-45
-1.03847e-43
4.97747e-44
-1.74843e-43
2.58994e-43
-1.09226e-43
1.29883e-42
2.78052e-44
1.03974e-42
4.86793e-44
-1.34951e-42
-4.86475e-44
-2.6112e-42
-2.74873e-44
-1.34953e-42
1.11825e-43
1.0394e-42
1.85617e-43
1.29327e-42
1.84063e-43
5.30869e-44
-2.99866e-43
-6.73976e-45
-3.4842e-43
1.77869e-44
1.28083e-43
4.07054e-44
1.12168e-43
6.7137e-47
-3.44826e-43
-4.01701e-44
-3.44343e-43
-1.38658e-44
1.17959e-43
1.81136e-44
1.80413e-43
1.32574e-44
3.72884e-44
2.78219e-45
7.43904e-45
5.39076e-46
1.03739e-45
6.6258e-47
1.40472e-46
-6.62716e-47
3.13354e-47
-5.39203e-46
1.40487e-46
-2.78337e-45
1.03756e-45
-1.32678e-44
7.44075e-45
-1.81912e-44
3.73043e-44
1.33159e-44
1.80554e-43
3.7317e-44
1.19016e-43
-1.3808e-44
-3.36718e-43
-6.11504e-44
-3.05956e-43
-1.3808e-44
3.05956e-43
3.7317e-44
3.36718e-43
1.33159e-44
-1.19016e-43
-1.81913e-44
-1.80554e-43
-1.32689e-44
-3.73041e-44
-2.79383e-45
-7.43903e-45
-6.17892e-46
-1.02157e-45
-6.25893e-46
1.52711e-48
-2.85984e-45
1.03568e-45
-1.37315e-44
7.56198e-45
-2.0423e-44
3.82009e-44
2.91845e-45
1.8694e-43
3.30115e-44
1.48725e-43
2.10325e-44
-1.94646e-43
-2.10263e-44
-3.75986e-43
-3.29554e-44
-1.94651e-43
-2.47702e-45
1.48651e-43
2.22589e-44
1.85991e-43
2.68143e-44
1.29007e-42
5.79637e-42
1.48515e-43
-2.59991e-42
4.04509e-44
-3.18539e-43
1.11785e-44
-1.6712e-44
5.05538e-46
-4.89684e-44
-6.69742e-45
-4.64345e-44
-2.82724e-45
1.56592e-44
2.13269e-45
2.42087e-44
1.69135e-45
5.11514e-45
3.64232e-46
1.04486e-45
7.20867e-47
1.48588e-46
8.9903e-48
2.04533e-47
-8.99222e-48
4.62459e-48
-7.21044e-47
2.04557e-47
-3.64394e-46
1.48613e-46
-1.69275e-45
1.04512e-45
-2.14289e-45
5.11756e-45
2.75789e-45
2.42303e-44
6.37058e-45
1.58266e-44
-1.765e-45
-4.51517e-44
-9.25253e-45
-4.09509e-44
-1.765e-45
4.09509e-44
6.37058e-45
4.51517e-44
2.75789e-45
-1.58266e-44
-2.14291e-45
-2.42303e-44
-1.69291e-45
-5.11754e-45
-3.65836e-46
-1.04486e-45
-8.28112e-47
-1.46254e-46
-8.39104e-47
2.276e-49
-3.74792e-46
1.48333e-46
-1.7546e-45
1.06273e-45
-2.43348e-45
5.24565e-45
1.44137e-45
2.51243e-44
6.00326e-45
1.98765e-44
3.5738e-45
-2.6208e-44
-3.57276e-45
-5.05505e-44
-5.99453e-45
-2.62091e-44
-1.37478e-45
1.98636e-44
2.71013e-45
2.49785e-44
3.64437e-45
2.15146e-41
-3.97856e-41
2.49233e-42
-4.43201e-42
3.18607e-43
-4.23542e-43
3.21676e-44
-3.43304e-44
3.00779e-45
-9.69141e-45
-6.42518e-46
-6.8885e-45
-3.79052e-46
2.21977e-45
2.50243e-46
3.4812e-45
2.05745e-46
7.48075e-46
4.51657e-47
1.55573e-46
9.08344e-48
2.24556e-47
1.14662e-48
3.1302e-48
-1.14683e-48
7.15162e-49
-9.08513e-48
3.1306e-48
-4.51777e-47
2.24599e-47
-2.058e-46
1.55619e-46
-2.49873e-46
7.48531e-46
3.91608e-46
3.48566e-45
8.57575e-46
2.26079e-45
-2.14904e-46
-6.49149e-45
-1.19912e-45
-5.87921e-45
-2.14904e-46
5.87921e-45
8.57575e-46
6.49149e-45
3.91607e-46
-2.26079e-45
-2.49876e-46
-3.48566e-45
-2.05821e-46
-7.48527e-46
-4.5364e-47
-1.55579e-46
-1.04538e-47
-2.20949e-47
-1.05954e-47
3.54652e-50
-4.65061e-47
2.24162e-47
-2.13575e-46
1.58309e-46
-2.85746e-46
7.67849e-46
2.325e-46
3.61843e-45
8.23956e-46
2.85025e-45
4.81038e-46
-3.77994e-45
-4.80886e-46
-7.2825e-45
-8.22733e-46
-3.78015e-45
-2.23432e-46
2.84799e-45
3.23223e-46
3.59519e-45
5.29118e-46
8.40953e-38
-6.15138e-37
7.77197e-38
-2.21381e-37
1.88703e-38
-1.64308e-37
5.51715e-39
-2.60329e-38
9.1652e-40
-4.25053e-39
1.52187e-40
-5.18334e-40
2.00261e-41
-6.30662e-41
2.55298e-42
-6.70783e-42
2.86136e-43
-6.99864e-43
3.06853e-44
-6.75384e-44
2.9909e-45
-5.97072e-45
4.40496e-46
1.54281e-46
1.01076e-46
-2.15085e-46
-9.71433e-47
-4.51907e-46
-5.57908e-47
1.86254e-46
3.64175e-47
2.8242e-46
3.13428e-47
6.79941e-47
7.64081e-48
1.5255e-47
1.6449e-48
2.42223e-48
2.61297e-49
3.5957e-49
3.82254e-50
4.52572e-50
4.80137e-51
5.36286e-51
5.70473e-52
5.73633e-52
1.20871e-52
5.27501e-53
5.74059e-52
-5.32175e-53
4.82646e-51
-5.7825e-52
3.82924e-50
-5.40937e-51
2.59157e-49
-4.5677e-50
1.58784e-48
-3.62926e-49
6.62332e-48
-2.4414e-48
1.62084e-47
-1.52776e-47
-1.68929e-46
-6.60912e-47
-2.65537e-45
-2.4294e-46
-3.11291e-44
4.23815e-46
-3.56325e-43
8.364e-45
-3.84935e-42
9.48213e-44
-4.04929e-41
1.05081e-42
-3.9171e-40
1.05171e-41
-3.72505e-39
8.96658e-41
-3.09417e-38
3.61352e-40
-2.5703e-37
-6.90916e-39
-1.57978e-36
-2.50321e-37
-9.94987e-36
-4.603e-36
-8.55323e-36
-6.10909e-35
8.66258e-36
-3.34036e-35
-6.12511e-35
9.6798e-36
1.44316e-36
-8.41442e-37
1.07191e-36
-7.09303e-37
1.94098e-37
-1.85394e-37
4.12798e-38
-2.49231e-38
5.97688e-39
-3.74373e-39
8.89393e-40
-4.42165e-40
1.09789e-40
-5.31103e-41
1.33192e-41
-5.61019e-42
1.44358e-42
-5.83297e-43
1.51557e-43
-5.58103e-44
1.47201e-44
-5.16678e-45
1.39107e-45
-3.99385e-46
1.27258e-46
-5.15754e-47
3.4888e-48
-3.79589e-47
-3.08295e-48
1.424e-47
2.54638e-48
2.20024e-47
2.16393e-48
5.35833e-48
5.33778e-49
1.21189e-48
1.16496e-49
1.93991e-49
1.87261e-50
2.89513e-50
2.76942e-51
3.6628e-51
3.51154e-52
4.35469e-52
4.20765e-53
4.67225e-53
9.04084e-54
4.30478e-54
4.33346e-53
-4.3248e-54
3.68251e-52
-4.68211e-53
3.00155e-51
-4.34856e-52
2.18552e-50
-3.62917e-51
1.58509e-49
-2.82076e-50
1.08699e-48
-1.80776e-49
9.32545e-48
-1.00512e-48
9.22535e-47
-2.35937e-48
1.0898e-45
1.8839e-47
1.27321e-44
5.13492e-46
1.43411e-43
6.56367e-45
1.52325e-42
7.64442e-44
1.56115e-41
8.54509e-43
1.47909e-40
8.655e-42
1.35567e-39
7.61921e-41
1.09765e-38
3.71929e-40
8.61195e-38
-4.03396e-39
5.14867e-37
-1.76978e-37
2.90246e-36
-3.39271e-36
3.3458e-36
-4.66368e-35
-5.49602e-37
-2.06927e-33
-4.681e-35
-1.66449e-36
3.351e-35
-1.68933e-35
1.82545e-36
-9.13537e-37
1.39907e-36
5.38699e-38
2.82556e-37
1.68695e-38
3.71686e-38
3.39238e-39
5.35433e-39
4.34189e-40
6.32286e-40
5.37062e-41
7.50323e-41
5.71842e-42
7.9275e-42
5.95282e-43
8.19298e-43
5.68787e-44
7.82731e-44
5.28626e-45
7.25437e-45
4.65725e-46
6.34225e-46
3.82247e-47
5.31411e-47
7.02333e-49
4.05067e-48
1.26884e-48
5.12367e-49
1.57697e-48
1.77678e-49
3.85048e-49
3.97848e-50
8.78956e-50
8.4669e-51
1.42064e-50
1.35768e-51
2.13868e-51
2.01017e-52
2.72708e-52
2.55662e-53
3.26357e-53
3.09065e-54
3.52205e-54
9.77443e-55
3.24489e-55
8.15939e-54
-3.5166e-55
1.03693e-52
-3.92187e-54
1.3696e-51
-3.87921e-53
1.83215e-50
-3.65574e-52
2.47853e-49
-3.51164e-51
3.30553e-48
-3.39699e-50
4.33953e-47
-3.65485e-49
5.50537e-46
-4.1583e-48
6.78218e-45
-5.14402e-47
7.97864e-44
-6.34413e-46
9.07982e-43
-7.78762e-45
9.74894e-42
-9.08301e-44
1.014e-40
-1.01122e-42
9.74636e-40
-1.00784e-41
9.13071e-39
-8.38978e-41
7.54725e-38
-2.62847e-40
6.14675e-37
8.84847e-39
3.80432e-36
2.87663e-37
2.33674e-35
5.22696e-36
2.10189e-35
6.96632e-35
1.74821e-35
2.32995e-33
6.97998e-35
-1.93578e-35
1.57078e-36
-6.27725e-37
9.15533e-37
-4.52058e-37
1.69866e-37
1.05627e-37
3.69497e-38
2.21096e-38
5.45526e-39
4.02898e-39
8.24354e-40
5.06998e-40
1.0291e-40
6.24458e-41
1.25943e-41
6.66744e-42
1.3742e-42
6.96187e-43
1.45067e-43
6.67712e-44
1.41549e-44
6.22218e-45
1.33226e-45
5.4566e-46
1.18202e-46
4.62662e-47
1.00857e-47
3.57664e-48
8.07583e-49
3.6637e-49
7.67044e-50
1.32552e-49
1.50578e-50
2.90224e-50
2.90512e-51
6.41939e-51
5.8864e-52
1.03364e-51
9.34944e-53
1.55608e-52
1.38277e-53
1.98909e-53
1.76322e-54
2.38505e-54
2.13815e-55
2.57901e-55
6.78075e-56
2.26709e-56
5.60074e-55
-4.45435e-56
7.02112e-54
-5.9124e-55
9.11455e-53
-7.64144e-54
1.19669e-51
-1.00584e-52
1.58467e-50
-1.36247e-51
2.06919e-49
-1.85457e-50
2.64972e-48
-2.53494e-49
3.28159e-47
-3.39723e-48
3.91993e-46
-4.46911e-47
4.47907e-45
-5.66496e-46
4.89255e-44
-6.96234e-45
5.06252e-43
-8.10769e-44
4.96575e-42
-8.98154e-43
4.54424e-41
-8.82192e-42
3.87895e-40
-6.94834e-41
2.9926e-39
-9.61766e-41
2.04459e-38
1.0954e-38
1.14878e-37
3.12741e-37
4.21819e-37
5.48849e-36
1.20679e-36
7.10976e-35
1.59062e-36
5.0864e-35
7.12643e-35
7.9021e-37
1.60947e-37
-4.87637e-37
-1.54676e-38
-6.67968e-38
4.00833e-39
1.10519e-38
2.83018e-39
3.05885e-39
5.88657e-40
6.07554e-40
1.11046e-40
8.20888e-41
1.56459e-41
1.05248e-41
2.08979e-42
1.16719e-42
2.41715e-43
1.25031e-43
2.66837e-44
1.22845e-44
2.69112e-45
1.16537e-45
2.6003e-46
1.03889e-46
2.35471e-47
8.93653e-48
2.04778e-48
7.21154e-49
1.68426e-49
6.28533e-50
1.42949e-50
1.17592e-50
1.70117e-51
2.16379e-51
2.44852e-52
4.4915e-52
4.28578e-53
7.13857e-53
6.49731e-54
1.07156e-53
9.42603e-55
1.37226e-54
1.18982e-55
1.64942e-55
6.41287e-57
1.79698e-56
-1.26292e-55
2.99027e-57
-2.04095e-54
2.0471e-56
-3.1644e-53
3.41665e-55
-4.77215e-52
5.53194e-54
-6.97461e-51
8.63918e-53
-9.90838e-50
1.306e-51
-1.35954e-48
1.90778e-50
-1.8113e-47
2.70341e-49
-2.31855e-46
3.69447e-48
-2.87927e-45
4.899e-47
-3.40802e-44
6.2341e-46
-3.91491e-43
7.69853e-45
-4.23181e-42
9.0552e-44
-4.45499e-41
1.03769e-42
-4.31271e-40
1.1262e-41
-4.10607e-39
1.21953e-40
-3.41413e-38
1.27222e-39
-2.84109e-37
1.41306e-38
-1.74841e-36
1.52487e-37
-1.10417e-35
1.67453e-36
-9.49323e-36
1.43443e-35
9.66355e-36
8.84005e-35
1.43617e-35
1.09705e-35
1.28861e-38
-8.81379e-38
-7.16623e-39
-1.24157e-38
-7.3508e-40
6.36784e-40
1.19967e-40
3.33604e-40
4.51205e-41
8.12062e-41
1.05976e-41
1.21148e-41
1.65681e-42
1.67767e-42
2.36099e-43
1.96191e-43
2.85708e-44
2.19159e-44
3.25724e-45
2.22175e-45
3.37052e-46
2.16102e-46
3.32145e-47
1.96448e-47
3.05816e-48
1.7178e-48
2.69683e-49
1.41877e-49
2.25139e-50
1.17389e-50
1.86783e-51
1.35825e-51
1.82243e-52
1.86411e-52
2.10936e-53
3.28812e-53
3.12335e-54
4.96781e-54
4.42221e-55
7.29821e-55
6.21809e-56
9.28306e-56
7.93417e-57
1.11345e-56
3.3548e-57
1.35968e-57
3.94243e-56
2.72648e-57
6.19743e-55
4.34483e-56
9.4979e-54
7.06249e-55
1.41662e-52
1.1196e-53
2.04802e-51
1.7255e-52
2.87515e-50
2.58944e-51
3.89595e-49
3.76691e-50
5.11471e-48
5.32818e-49
6.44407e-47
7.27639e-48
7.84844e-46
9.64919e-47
9.0964e-45
1.22843e-45
1.01732e-43
1.51784e-44
1.06826e-42
1.78654e-43
1.08193e-41
2.04761e-42
1.0045e-40
2.22002e-41
9.01398e-40
2.39258e-40
7.03678e-39
2.46499e-39
5.31511e-38
2.67661e-38
2.96593e-37
2.79227e-37
1.54912e-36
2.98029e-36
1.30216e-36
2.47705e-35
-1.29302e-36
1.52284e-34
2.47403e-35
-1.52634e-36
1.41709e-39
-9.51667e-39
-1.39105e-39
-1.51746e-39
-2.00073e-40
-1.41158e-41
-1.00822e-41
2.52382e-41
2.15817e-42
7.77664e-42
8.74773e-43
1.27844e-42
1.60598e-43
1.88676e-43
2.5099e-44
2.30924e-44
3.21382e-45
2.66668e-45
3.81662e-46
2.77604e-46
4.06888e-47
2.75569e-47
4.1038e-48
2.54831e-48
3.84802e-49
2.25931e-49
3.44461e-50
1.89348e-50
2.91478e-51
1.55512e-51
2.40531e-52
1.49016e-52
2.10612e-53
1.6537e-53
2.04492e-54
2.42726e-54
2.47306e-55
3.40179e-55
3.12681e-56
4.82207e-56
4.19922e-57
6.05349e-57
1.69704e-57
7.22756e-58
1.99554e-56
1.04862e-58
3.2322e-55
4.65472e-58
5.12068e-54
7.64931e-57
7.89014e-53
1.24645e-55
1.18377e-51
1.98169e-54
1.72221e-50
3.06403e-53
2.43547e-49
4.61572e-52
3.32666e-48
6.7422e-51
4.40938e-47
9.58293e-50
5.61443e-46
1.3157e-48
6.92762e-45
1.75724e-47
8.14579e-44
2.26049e-46
9.27894e-43
2.85318e-45
9.9447e-42
3.53268e-44
1.03495e-40
4.59849e-43
9.90544e-40
6.64064e-42
9.27617e-39
1.16327e-40
7.5934e-38
2.28326e-39
6.15975e-37
4.54962e-38
3.7088e-36
8.14887e-37
2.23328e-35
1.22986e-35
1.91754e-35
1.43858e-34
-1.91598e-35
3.03129e-34
1.43603e-34
-2.20298e-35
1.34551e-40
-1.2196e-39
-1.52369e-40
-2.00519e-40
-2.48719e-41
-1.41041e-41
-2.41743e-42
9.52734e-43
-2.96936e-46
6.34291e-43
5.80321e-44
1.22004e-43
1.29983e-44
1.97264e-44
2.22722e-45
2.55212e-45
3.00783e-46
3.06931e-46
3.70412e-47
3.29116e-47
4.05655e-48
3.34326e-48
4.17573e-49
3.14815e-49
3.98063e-50
2.8323e-50
3.611e-51
2.40514e-51