/*--------------------------------*- C++ -*----------------------------------*\
| =========                 |                                                 |
| \\      /  F ield         | OpenFOAM: The Open Source CFD Toolbox           |
|  \\    /   O peration     | Version:  2.4.0                                 |
|   \\  /    A nd           | Web:      www.OpenFOAM.org                      |
|    \\/     M anipulation  |                                                 |
\*---------------------------------------------------------------------------*/
FoamFile
{
    version     2.0;
    format      ascii;
    class       volVectorField;
    location    "0.7";
    object      U;
}
// * * * * * * * * * * * * * * * * * * * * * * * * * * * * * * * * * * * * * //

dimensions      [0 1 -1 0 0 0 0];

internalField   nonuniform List<vector> 
7700
(
(9.86941e-36 3.07849e-36 0)
(8.6867e-35 2.07374e-35 0)
(4.32674e-34 1.4478e-34 0)
(4.18116e-33 1.0895e-34 0)
(3.8267e-33 -2.78214e-34 0)
(-3.82493e-33 -2.77824e-34 0)
(-4.16947e-33 1.12699e-34 0)
(-3.35297e-34 1.68928e-34 0)
(4.34289e-34 1.8671e-34 0)
(4.61543e-33 2.60879e-34 0)
(8.10504e-33 -1.44383e-34 0)
(5.31332e-34 -3.87163e-34 0)
(-3.29505e-33 1.08949e-34 0)
(3.92533e-33 2.53722e-34 0)
(4.19296e-33 -1.12746e-34 0)
(4.34289e-34 -1.45224e-34 0)
(8.71688e-35 -2.07959e-35 0)
(1.02335e-35 -3.36057e-36 0)
(1.43298e-36 -3.94538e-37 0)
(1.5944e-37 -4.76023e-38 0)
(1.84644e-38 -4.97496e-39 0)
(1.88349e-39 -5.15446e-40 0)
(1.91177e-40 -4.88838e-41 0)
(1.94812e-41 -4.13694e-42 0)
(1.95987e-41 4.17009e-42 0)
(1.92663e-40 4.92449e-41 0)
(1.89968e-39 5.1958e-40 0)
(1.86373e-38 5.01927e-39 0)
(1.61129e-37 4.80681e-38 0)
(1.44953e-36 3.98988e-37 0)
(1.03741e-35 3.4031e-36 0)
(8.84386e-35 2.11418e-35 0)
(4.43053e-34 1.4818e-34 0)
(4.26958e-33 1.30086e-34 0)
(4.26958e-33 -1.30086e-34 0)
(4.43053e-34 -1.4818e-34 0)
(8.84386e-35 -2.11418e-35 0)
(1.03741e-35 -3.4031e-36 0)
(1.44953e-36 -3.98989e-37 0)
(1.61128e-37 -4.807e-38 0)
(1.86297e-38 -5.03449e-39 0)
(1.85259e-39 -6.18961e-40 0)
(-2.63084e-42 -6.69644e-40 0)
(-7.90694e-40 -2.59661e-39 0)
(4.81926e-41 -1.10699e-38 0)
(9.97392e-40 -1.73417e-39 0)
(3.29264e-36 -1.39402e-36 0)
(2.59243e-35 -1.09678e-35 0)
(1.26293e-34 -7.65083e-35 0)
(7.9069e-34 -5.74218e-35 0)
(6.87371e-34 1.46795e-34 0)
(-6.86737e-34 1.46605e-34 0)
(-7.86658e-34 -5.93094e-35 0)
(-9.67418e-35 -8.92084e-35 0)
(1.2687e-34 -9.86858e-35 0)
(9.17552e-34 -1.37535e-34 0)
(1.50754e-33 7.63154e-35 0)
(1.56296e-34 2.04217e-34 0)
(-5.30955e-34 -5.74215e-35 0)
(7.17364e-34 -1.33927e-34 0)
(7.94767e-34 5.93316e-35 0)
(1.2687e-34 7.67244e-35 0)
(2.60435e-35 1.10053e-35 0)
(3.51851e-36 1.69798e-36 0)
(5.07068e-37 1.92408e-37 0)
(6.00867e-38 2.2222e-38 0)
(7.12297e-39 2.24204e-39 0)
(7.523e-40 2.24741e-40 0)
(7.77449e-41 2.07364e-41 0)
(8.1091e-42 1.71611e-42 0)
(8.15933e-42 -1.72931e-42 0)
(7.83709e-41 -2.0883e-41 0)
(7.5902e-40 -2.26456e-40 0)
(7.19312e-39 -2.26089e-39 0)
(6.07599e-38 -2.24257e-38 0)
(5.13424e-37 -1.94421e-37 0)
(3.57132e-36 -1.71792e-36 0)
(2.64889e-35 -1.11751e-35 0)
(1.29867e-34 -7.82255e-35 0)
(8.17171e-34 -6.85943e-35 0)
(8.17171e-34 6.85943e-35 0)
(1.29867e-34 7.82255e-35 0)
(2.64889e-35 1.11751e-35 0)
(3.57132e-36 1.71792e-36 0)
(5.13422e-37 1.9442e-37 0)
(6.07484e-38 2.24107e-38 0)
(7.11733e-39 2.14134e-39 0)
(2.85178e-40 -5.70678e-40 0)
(-1.90267e-39 -5.05099e-39 0)
(-8.29351e-39 -2.17926e-38 0)
(4.44117e-40 -9.4299e-38 0)
(9.90696e-39 -1.47783e-38 0)
(8.95096e-37 -4.88127e-37 0)
(5.89592e-36 -3.65277e-36 0)
(2.16262e-35 -2.04897e-35 0)
(1.0519e-34 -1.41763e-35 0)
(8.87033e-35 3.89932e-35 0)
(-8.85163e-35 3.89205e-35 0)
(-1.04125e-34 -1.48483e-35 0)
(-1.47883e-35 -2.47541e-35 0)
(2.17946e-35 -2.78858e-35 0)
(1.26982e-34 -3.59448e-35 0)
(2.00707e-34 2.04156e-35 0)
(2.85925e-35 5.31694e-35 0)
(-6.00734e-35 -1.41762e-35 0)
(9.5667e-35 -3.46645e-35 0)
(1.06268e-34 1.48571e-35 0)
(2.17946e-35 2.05726e-35 0)
(5.92504e-36 3.66646e-36 0)
(9.15509e-37 5.99513e-37 0)
(1.47312e-37 7.36666e-38 0)
(1.87014e-38 8.80754e-39 0)
(2.34057e-39 9.28405e-40 0)
(2.5703e-40 9.54054e-41 0)
(2.74015e-41 9.05728e-42 0)
(2.93257e-42 7.62637e-43 0)
(2.95131e-42 -7.68728e-43 0)
(2.76315e-41 -9.12385e-42 0)
(2.59451e-40 -9.61675e-41 0)
(2.36523e-39 -9.3662e-40 0)
(1.89305e-38 -8.89373e-39 0)
(1.4939e-37 -7.44979e-38 0)
(9.31815e-37 -6.07373e-37 0)
(6.05314e-36 -3.73113e-36 0)
(2.25581e-35 -2.10966e-35 0)
(1.1124e-34 -1.79064e-35 0)
(1.1124e-34 1.79064e-35 0)
(2.25581e-35 2.10966e-35 0)
(6.05314e-36 3.73113e-36 0)
(9.31814e-37 6.07372e-37 0)
(1.49379e-37 7.4485e-38 0)
(1.884e-38 8.78425e-39 0)
(1.76425e-39 5.46399e-41 0)
(-3.54491e-39 -5.85707e-39 0)
(-1.61021e-38 -3.84308e-38 0)
(-6.85944e-38 -1.6811e-37 0)
(3.26889e-39 -7.38713e-37 0)
(8.0644e-38 -1.15523e-37 0)
(1.70776e-37 -1.50199e-37 0)
(9.71186e-37 -1.01908e-36 0)
(2.70637e-36 -5.30585e-36 0)
(1.06692e-35 -3.5652e-36 0)
(8.79486e-36 1.0093e-35 0)
(-8.75655e-36 1.00697e-35 0)
(-1.04685e-35 -3.76928e-36 0)
(-1.56036e-36 -6.50815e-36 0)
(2.74042e-36 -7.37031e-36 0)
(1.34089e-35 -9.25776e-36 0)
(2.06046e-35 5.2812e-36 0)
(3.87761e-36 1.3658e-35 0)
(-4.90923e-36 -3.56494e-36 0)
(9.96573e-36 -8.86942e-36 0)
(1.08725e-35 3.77225e-36 0)
(2.74042e-36 5.3317e-36 0)
(9.76046e-37 1.02265e-36 0)
(1.70308e-37 1.81089e-37 0)
(2.97704e-38 2.36196e-38 0)
(4.00239e-39 2.97759e-39 0)
(5.21038e-40 3.26915e-40 0)
(5.90657e-41 3.47448e-41 0)
(6.44452e-42 3.38725e-42 0)
(7.04494e-43 2.90987e-43 0)
(7.0911e-43 -2.93391e-43 0)
(6.50048e-42 -3.41311e-42 0)
(5.96455e-41 -3.50355e-41 0)
(5.26823e-40 -3.2998e-40 0)
(4.0549e-39 -3.00889e-39 0)
(3.02311e-38 -2.39112e-38 0)
(1.73777e-37 -1.83733e-37 0)
(1.0017e-36 -1.04322e-36 0)
(2.87991e-36 -5.48851e-36 0)
(1.16702e-35 -4.60783e-36 0)
(1.16702e-35 4.60783e-36 0)
(2.87991e-36 5.48851e-36 0)
(1.00169e-36 1.04322e-36 0)
(1.73767e-37 1.83724e-37 0)
(3.01479e-38 2.38233e-38 0)
(3.38629e-39 2.257e-39 0)
(-3.96674e-39 -5.80621e-39 0)
(-2.88026e-38 -4.201e-38 0)
(-1.24529e-37 -2.76564e-37 0)
(-5.38322e-37 -1.23668e-36 0)
(2.2011e-38 -5.54284e-36 0)
(6.21871e-37 -8.63633e-37 0)
(2.39082e-38 -6.05901e-38 0)
(1.51436e-37 -2.11245e-37 0)
(2.83861e-37 -9.7922e-37 0)
(7.85895e-37 -6.34438e-37 0)
(6.28072e-37 1.84606e-36 0)
(-6.20734e-37 1.8413e-36 0)
(-7.50507e-37 -6.75294e-37 0)
(-1.04069e-37 -1.20936e-36 0)
(2.89131e-37 -1.37698e-36 0)
(1.07415e-36 -1.68466e-36 0)
(1.59074e-36 9.66168e-37 0)
(4.66167e-37 2.47915e-36 0)
(-1.60195e-37 -6.32743e-37 0)
(8.11189e-37 -1.60397e-36 0)
(8.20293e-37 6.75956e-37 0)
(2.89131e-37 9.7717e-37 0)
(1.49784e-37 2.0066e-37 0)
(2.90304e-38 3.74956e-38 0)
(5.48838e-39 5.13272e-39 0)
(7.73204e-40 6.70984e-40 0)
(1.04302e-40 7.60233e-41 0)
(1.21386e-41 8.27206e-42 0)
(1.35192e-42 8.23131e-43 0)
(1.50418e-43 7.17412e-44 0)
(1.51425e-43 -7.23498e-44 0)
(1.36399e-42 -8.29599e-43 0)
(1.22621e-41 -8.34375e-42 0)
(1.05513e-40 -7.67669e-41 0)
(7.83965e-40 -6.78418e-40 0)
(5.58026e-39 -5.20031e-39 0)
(2.96966e-38 -3.80889e-38 0)
(1.54475e-37 -2.05105e-37 0)
(3.12463e-37 -1.00938e-36 0)
(9.39493e-37 -8.37773e-37 0)
(9.39493e-37 8.37773e-37 0)
(3.12463e-37 1.00938e-36 0)
(1.54468e-37 2.05099e-37 0)
(2.96295e-38 3.80318e-38 0)
(5.0074e-39 4.65223e-39 0)
(-3.87868e-39 -4.06767e-39 0)
(-3.16982e-38 -3.92521e-38 0)
(-2.08032e-37 -2.74544e-37 0)
(-9.17718e-37 -1.84677e-36 0)
(-4.05025e-36 -8.49915e-36 0)
(1.34048e-37 -3.89128e-35 0)
(4.58611e-36 -6.05662e-36 0)
(-4.38003e-38 -2.26148e-37 0)
(4.06452e-38 -1.21067e-37 0)
(3.45394e-38 -2.25782e-37 0)
(3.80942e-38 -1.19401e-37 0)
(2.45168e-38 3.16097e-37 0)
(-2.18316e-38 3.17225e-37 0)
(-2.68499e-38 -1.15284e-37 0)
(-8.97442e-40 -2.10574e-37 0)
(2.73189e-38 -2.40403e-37 0)
(5.95141e-38 -2.89901e-37 0)
(8.0687e-38 1.66484e-37 0)
(5.24206e-38 4.25762e-37 0)
(2.94224e-38 -1.0718e-37 0)
(4.93729e-38 -2.74652e-37 0)
(3.7631e-38 1.15367e-37 0)
(2.73182e-38 1.68641e-37 0)
(2.09796e-38 3.60336e-38 0)
(4.42225e-39 7.06575e-39 0)
(8.86278e-40 1.00417e-39 0)
(1.29627e-40 1.35586e-40 0)
(1.79776e-41 1.57598e-41 0)
(2.13859e-42 1.75043e-42 0)
(2.42228e-43 1.77119e-43 0)
(2.73641e-44 1.56287e-44 0)
(2.75507e-44 -1.57642e-44 0)
(2.44446e-43 -1.78544e-43 0)
(2.161e-42 -1.76604e-42 0)
(1.81942e-41 -1.59196e-41 0)
(1.31518e-40 -1.37157e-40 0)
(9.02067e-40 -1.01814e-39 0)
(4.53341e-39 -7.18522e-39 0)
(2.17319e-38 -3.68987e-38 0)
(3.0818e-38 -1.74671e-37 0)
(5.39277e-38 -1.44063e-37 0)
(5.39273e-38 1.44062e-37 0)
(3.08137e-38 1.74668e-37 0)
(2.16881e-38 3.68666e-38 0)
(4.11346e-39 6.86015e-39 0)
(-2.72583e-39 -2.14228e-39 0)
(-2.98395e-38 -2.76457e-38 0)
(-2.08116e-37 -2.34816e-37 0)
(-1.39097e-36 -1.67967e-36 0)
(-6.30775e-36 -1.16474e-35 0)
(-2.84717e-35 -5.5697e-35 0)
(6.809e-37 -2.62872e-34 0)
(3.14578e-35 -4.06929e-35 0)
(-3.27791e-37 -1.51847e-36 0)
(1.65213e-37 -5.83947e-37 0)
(6.64548e-38 -4.24689e-37 0)
(4.15225e-38 -9.82803e-38 0)
(6.88426e-39 3.20982e-38 0)
(4.34788e-39 4.59242e-38 0)
(3.31512e-39 -1.76767e-38 0)
(1.16704e-39 -3.23553e-38 0)
(2.54734e-39 -3.69945e-38 0)
(2.83761e-40 -4.39997e-38 0)
(-1.06345e-39 2.53068e-38 0)
(6.01143e-39 6.44994e-38 0)
(8.34542e-39 -1.60216e-38 0)
(1.32958e-39 -4.14953e-38 0)
(-1.46294e-39 1.73689e-38 0)
(2.54255e-39 2.56721e-38 0)
(2.8736e-39 5.68556e-39 0)
(6.42162e-40 1.15727e-39 0)
(1.34482e-40 1.69704e-40 0)
(2.02322e-41 2.35069e-41 0)
(2.86902e-42 2.79142e-42 0)
(3.47309e-43 3.1528e-43 0)
(3.98888e-44 3.23619e-44 0)
(4.56252e-45 2.88535e-45 0)
(4.5941e-45 -2.91083e-45 0)
(4.02614e-44 -3.26277e-44 0)
(3.51039e-43 -3.18163e-43 0)
(2.90465e-42 -2.82058e-42 0)
(2.05388e-41 -2.37892e-41 0)
(1.36996e-40 -1.72174e-40 0)
(6.59445e-40 -1.17792e-39 0)
(2.98715e-39 -5.83112e-39 0)
(3.04445e-39 -2.66541e-38 0)
(7.27601e-40 -2.18501e-38 0)
(7.2552e-40 2.18487e-38 0)
(3.01968e-39 2.66398e-38 0)
(2.73647e-39 5.67396e-39 0)
(-1.77306e-39 -4.31949e-40 0)
(-2.11862e-38 -1.57081e-38 0)
(-1.79496e-37 -1.4212e-37 0)
(-1.27498e-36 -1.23045e-36 0)
(-8.76219e-36 -9.08672e-36 0)
(-4.11363e-35 -6.54881e-35 0)
(-1.91759e-34 -3.30247e-34 0)
(2.68817e-36 -1.60712e-33 0)
(2.06143e-34 -2.49313e-34 0)
(-1.9587e-36 -9.65485e-36 0)
(1.4211e-36 -3.71212e-36 0)
(4.98227e-37 -2.62464e-36 0)
(3.06102e-37 -5.29654e-37 0)
(6.16439e-38 -9.52246e-38 0)
(1.31007e-38 -7.54239e-39 0)
(2.67045e-39 -4.47205e-39 0)
(4.91448e-40 -4.94121e-39 0)
(2.75397e-40 -5.426e-39 0)
(-5.04216e-40 -6.36529e-39 0)
(-9.64983e-40 3.66117e-39 0)
(7.01253e-40 9.31294e-39 0)
(1.37835e-39 -2.2907e-39 0)
(-1.9365e-40 -5.9783e-39 0)
(-6.43798e-40 2.49787e-39 0)
(2.45267e-40 3.71886e-39 0)
(3.75311e-40 8.44881e-40 0)
(8.73912e-41 1.77285e-40 0)
(1.88858e-41 2.6639e-41 0)
(2.9055e-42 3.76783e-42 0)
(4.19321e-43 4.5516e-43 0)
(5.15076e-44 5.21245e-44 0)
(5.98445e-45 5.41297e-45 0)
(6.91863e-46 4.86773e-46 0)
(6.96716e-46 -4.91139e-46 0)
(6.04132e-45 -5.45819e-45 0)
(5.20722e-44 -5.26109e-44 0)
(4.24659e-43 -4.60032e-43 0)
(2.9509e-42 -3.81444e-42 0)
(1.92523e-41 -2.70409e-41 0)
(8.98648e-41 -1.80587e-40 0)
(3.91181e-40 -8.6765e-40 0)
(3.12848e-40 -3.86863e-39 0)
(-3.62704e-40 -3.15834e-39 0)
(-3.72887e-40 3.1525e-39 0)
(1.9059e-40 3.80652e-39 0)
(-8.59851e-40 1.78e-40 0)
(-1.22216e-38 -6.98623e-39 0)
(-1.09747e-37 -7.20427e-38 0)
(-9.4417e-37 -6.60466e-37 0)
(-6.89019e-36 -5.91236e-36 0)
(-4.88911e-35 -4.5636e-35 0)
(-2.39642e-34 -3.48518e-34 0)
(-1.15504e-33 -1.89122e-33 0)
(3.19755e-36 -9.71333e-33 0)
(1.19599e-33 -1.48584e-33 0)
(-8.68961e-36 -5.90288e-35 0)
(1.2879e-35 -2.1615e-35 0)
(3.95154e-36 -1.52782e-35 0)
(2.08746e-36 -2.99076e-36 0)
(4.03905e-37 -5.58414e-37 0)
(7.77221e-38 -7.6343e-38 0)
(1.11761e-38 -1.05923e-38 0)
(1.54388e-39 -1.8161e-39 0)
(2.02519e-40 -8.63115e-40 0)
(-7.83677e-41 -8.69598e-40 0)
(-1.71037e-40 4.91957e-40 0)
(8.36814e-41 1.2519e-39 0)
(1.92077e-40 -3.05161e-40 0)
(-4.68581e-41 -8.02144e-40 0)
(-1.09424e-40 3.34513e-40 0)
(2.54552e-41 5.01512e-40 0)
(4.75624e-41 1.16541e-40 0)
(1.13824e-41 2.50468e-41 0)
(2.51728e-42 3.84067e-42 0)
(3.94005e-43 5.52451e-43 0)
(5.76673e-44 6.7706e-44 0)
(7.16789e-45 7.84333e-45 0)
(8.40763e-46 8.22683e-46 0)
(9.80626e-47 7.45235e-47 0)
(9.87577e-47 -7.52009e-47 0)
(8.48863e-46 -8.29656e-46 0)
(7.24776e-45 -7.9178e-45 0)
(5.84158e-44 -6.8446e-44 0)
(4.00304e-43 -5.59459e-43 0)
(2.56744e-42 -3.90041e-42 0)
(1.17149e-41 -2.55305e-41 0)
(4.96431e-41 -1.19822e-40 0)
(3.38523e-41 -5.22692e-40 0)
(-7.82992e-41 -4.26287e-40 0)
(-1.23019e-40 4.07903e-40 0)
(-5.09296e-40 3.25099e-40 0)
(-5.58716e-39 -2.10291e-39 0)
(-5.64826e-38 -2.34465e-38 0)
(-5.14416e-37 -2.41297e-37 0)
(-4.55058e-36 -2.28204e-36 0)
(-3.43229e-35 -2.13972e-35 0)
(-2.54304e-34 -1.77315e-34 0)
(-1.31215e-33 -1.47403e-33 0)
(-6.71479e-33 -8.99748e-33 0)
(-3.77845e-35 -4.8327e-32 0)
(6.68181e-33 -7.48545e-33 0)
(-1.22836e-35 -3.17587e-34 0)
(1.2013e-34 -1.19582e-34 0)
(3.08334e-35 -8.73696e-35 0)
(1.28357e-35 -1.63205e-35 0)
(2.3229e-36 -2.93007e-36 0)
(4.24284e-37 -3.89612e-37 0)
(5.84742e-38 -5.02797e-38 0)
(7.7989e-39 -5.70385e-39 0)
(9.01576e-40 -7.02524e-40 0)
(8.57993e-41 -1.70219e-40 0)
(-1.35603e-41 5.76912e-41 0)
(1.07725e-41 1.60239e-40 0)
(2.42165e-41 -3.89362e-41 0)
(-6.81379e-42 -1.02833e-40 0)
(-1.47054e-41 4.28186e-41 0)
(2.75479e-42 6.45513e-41 0)
(5.75444e-42 1.52668e-41 0)
(1.40573e-42 3.34159e-42 0)
(3.16351e-43 5.20477e-43 0)
(5.02284e-44 7.58379e-44 0)
(7.43667e-45 9.39867e-45 0)
(9.33769e-46 1.09843e-45 0)
(1.10415e-46 1.16107e-46 0)
(1.29778e-47 1.05762e-47 0)
(1.307e-47 -1.06735e-47 0)
(1.11481e-46 -1.17104e-46 0)
(9.44165e-46 -1.10904e-45 0)
(7.53248e-45 -9.50352e-45 0)
(5.10135e-44 -7.68257e-44 0)
(3.22325e-43 -5.28867e-43 0)
(1.44144e-42 -3.4094e-42 0)
(5.92861e-42 -1.57313e-41 0)
(2.69329e-42 -6.76463e-41 0)
(-2.43313e-41 -5.83227e-41 0)
(-1.71549e-40 8.4174e-42 0)
(-1.80681e-39 -4.76413e-40 0)
(-1.90656e-38 -6.2168e-39 0)
(-1.9487e-37 -6.72005e-38 0)
(-1.81753e-36 -7.14324e-37 0)
(-1.6566e-35 -7.07163e-36 0)
(-1.299e-34 -7.16575e-35 0)
(-1.00679e-33 -6.61304e-34 0)
(-5.53038e-33 -6.30385e-33 0)
(-2.98927e-32 -4.48901e-32 0)
(-3.60123e-34 -2.71918e-31 0)
(2.7217e-32 -3.96627e-32 0)
(-7.33092e-36 -2.31679e-36 0)
(-6.94315e-35 -1.63287e-35 0)
(-3.58016e-34 -1.25723e-34 0)
(-3.80494e-33 -9.73367e-35 0)
(-3.50983e-33 2.42206e-34 0)
(3.50983e-33 2.42206e-34 0)
(3.80494e-33 -9.73366e-35 0)
(3.5802e-34 -1.25722e-34 0)
(6.95097e-35 -1.63332e-35 0)
(7.50999e-36 -2.50798e-36 0)
(1.0042e-36 -2.72355e-37 0)
(1.02725e-37 -3.1428e-38 0)
(-7.90987e-43 -6.07036e-39 0)
(-1.02735e-37 -3.14303e-38 0)
(-1.0043e-36 -2.72381e-37 0)
(-7.51108e-36 -2.50828e-36 0)
(-6.95212e-35 -1.63363e-35 0)
(-3.58125e-34 -1.25753e-34 0)
(-3.80595e-33 -9.7612e-35 0)
(-3.51744e-33 2.39667e-34 0)
(3.4393e-33 2.25598e-34 0)
(3.4393e-33 -2.25598e-34 0)
(-3.51744e-33 -2.39667e-34 0)
(-3.80595e-33 9.7612e-35 0)
(-3.58125e-34 1.25753e-34 0)
(-6.95213e-35 1.63362e-35 0)
(-7.51219e-36 2.50798e-36 0)
(-1.01591e-36 2.69295e-37 0)
(-2.08624e-37 -2.70612e-40 0)
(-1.02612e-36 -2.72055e-37 0)
(-7.60448e-36 -2.53605e-36 0)
(-7.04207e-35 -1.65771e-35 0)
(-3.64619e-34 -1.27986e-34 0)
(-3.86785e-33 -1.11406e-34 0)
(-3.80494e-33 1.30554e-34 0)
(-9.28177e-40 2.56522e-34 0)
(3.80493e-33 1.30551e-34 0)
(3.86776e-33 -1.11429e-34 0)
(3.636e-34 -1.28034e-34 0)
(6.53936e-35 -1.49633e-35 0)
(-2.45208e-36 1.05213e-36 0)
(-2.06814e-35 8.63401e-36 0)
(-1.05077e-34 6.64214e-35 0)
(-7.24724e-34 5.13036e-35 0)
(-6.38095e-34 -1.27779e-34 0)
(6.38095e-34 -1.27779e-34 0)
(7.24724e-34 5.13036e-35 0)
(1.05079e-34 6.64211e-35 0)
(2.07143e-35 8.64266e-36 0)
(2.58372e-36 1.26323e-36 0)
(3.54273e-37 1.32406e-37 0)
(3.8653e-38 1.46061e-38 0)
(-3.32673e-43 2.72658e-39 0)
(-3.86568e-38 1.46071e-38 0)
(-3.54316e-37 1.32417e-37 0)
(-2.58416e-36 1.26336e-36 0)
(-2.07187e-35 8.64403e-36 0)
(-1.05119e-34 6.64358e-35 0)
(-7.25083e-34 5.14373e-35 0)
(-6.40718e-34 -1.26501e-34 0)
(6.17022e-34 -1.19003e-34 0)
(6.17022e-34 1.19003e-34 0)
(-6.40718e-34 1.26501e-34 0)
(-7.25083e-34 -5.14373e-35 0)
(-1.05119e-34 -6.64357e-35 0)
(-2.07187e-35 -8.64402e-36 0)
(-2.5846e-36 -1.26323e-36 0)
(-3.58784e-37 -1.31032e-37 0)
(-7.8571e-38 1.17934e-40 0)
(-3.62696e-37 1.32276e-37 0)
(-2.61925e-36 1.27634e-36 0)
(-2.10335e-35 8.76181e-36 0)
(-1.07344e-34 6.75652e-35 0)
(-7.43174e-34 5.88021e-35 0)
(-7.24724e-34 -6.88564e-35 0)
(-4.07812e-40 -1.35398e-34 0)
(7.2472e-34 -6.88555e-35 0)
(7.43137e-34 5.88088e-35 0)
(1.06955e-34 6.7504e-35 0)
(1.89481e-35 6.63349e-36 0)
(-6.70457e-37 3.67896e-37 0)
(-4.75394e-36 2.88753e-36 0)
(-1.81047e-35 1.78827e-35 0)
(-9.71956e-35 1.28562e-35 0)
(-8.32656e-35 -3.41315e-35 0)
(8.32656e-35 -3.41316e-35 0)
(9.71956e-35 1.28562e-35 0)
(1.81049e-35 1.78825e-35 0)
(4.75891e-36 2.89026e-36 0)
(6.76772e-37 4.45577e-37 0)
(1.03572e-37 5.07055e-38 0)
(1.20719e-38 5.78037e-39 0)
(-1.22686e-43 1.12772e-39 0)
(-1.20733e-38 5.78079e-39 0)
(-1.03587e-37 5.07104e-38 0)
(-6.76922e-37 4.45632e-37 0)
(-4.76037e-36 2.89083e-36 0)
(-1.81172e-35 1.78883e-35 0)
(-9.73007e-35 1.29074e-35 0)
(-8.39547e-35 -3.36802e-35 0)
(7.84016e-35 -3.119e-35 0)
(7.84016e-35 3.119e-35 0)
(-8.39547e-35 3.36802e-35 0)
(-9.73007e-35 -1.29074e-35 0)
(-1.81172e-35 -1.78883e-35 0)
(-4.76038e-36 -2.89082e-36 0)
(-6.77073e-37 -4.45577e-37 0)
(-1.05063e-37 -5.01372e-38 0)
(-2.4577e-38 4.98019e-41 0)
(-1.06347e-37 5.06504e-38 0)
(-6.8783e-37 4.50734e-37 0)
(-4.8516e-36 2.93574e-36 0)
(-1.8689e-35 1.82826e-35 0)
(-1.0137e-34 1.53463e-35 0)
(-9.71956e-35 -1.87392e-35 0)
(-7.99721e-41 -3.66677e-35 0)
(9.71948e-35 -1.87388e-35 0)
(1.01365e-34 1.53494e-35 0)
(1.86342e-35 1.82649e-35 0)
(4.55181e-36 2.2192e-36 0)
(-1.29191e-37 1.10809e-37 0)
(-7.90708e-37 8.06274e-37 0)
(-2.28143e-36 4.64205e-36 0)
(-9.9581e-36 3.25344e-36 0)
(-8.35982e-36 -8.85651e-36 0)
(8.35982e-36 -8.85651e-36 0)
(9.9581e-36 3.25344e-36 0)
(2.28139e-36 4.64205e-36 0)
(7.91051e-37 8.07468e-37 0)
(1.26642e-37 1.35078e-37 0)
(2.10228e-38 1.63127e-38 0)
(2.58958e-39 1.96253e-39 0)
(-2.9901e-44 3.9828e-40 0)
(-2.58992e-39 1.96269e-39 0)
(-2.10263e-38 1.63146e-38 0)
(-1.26677e-37 1.35098e-37 0)
(-7.91378e-37 8.07669e-37 0)
(-2.28405e-36 4.64401e-36 0)
(-9.97946e-36 3.26995e-36 0)
(-8.48912e-36 -8.71947e-36 0)
(7.54741e-36 -8.03253e-36 0)
(7.54741e-36 8.03253e-36 0)
(-8.48912e-36 8.71947e-36 0)
(-9.97946e-36 -3.26995e-36 0)
(-2.28405e-36 -4.64401e-36 0)
(-7.91381e-37 -8.07667e-37 0)
(-1.26711e-37 -1.35078e-37 0)
(-2.13559e-38 -1.61119e-38 0)
(-5.27882e-39 1.81363e-41 0)
(-2.16411e-38 1.62926e-38 0)
(-1.29008e-37 1.3682e-37 0)
(-8.09749e-37 8.22015e-37 0)
(-2.38934e-36 4.76258e-36 0)
(-1.06412e-35 3.94038e-36 0)
(-9.95811e-36 -4.9014e-36 0)
(-1.0189e-41 -9.55817e-36 0)
(9.95802e-36 -4.90131e-36 0)
(1.06409e-35 3.94078e-36 0)
(2.38615e-36 4.75445e-36 0)
(7.86129e-37 6.12859e-37 0)
(-2.30296e-38 2.27737e-38 0)
(-1.22695e-37 1.5838e-37 0)
(-2.41112e-37 8.52059e-37 0)
(-7.51737e-37 5.81233e-37 0)
(-6.15e-37 -1.62406e-36 0)
(6.15e-37 -1.62406e-36 0)
(7.51736e-37 5.81234e-37 0)
(2.41089e-37 8.52065e-37 0)
(1.22615e-37 1.58688e-37 0)
(2.1706e-38 2.80272e-38 0)
(3.89328e-39 3.55264e-39 0)
(5.01424e-40 4.43253e-40 0)
(-6.46761e-45 9.27598e-41 0)
(-5.01495e-40 4.43294e-40 0)
(-3.89403e-39 3.55309e-39 0)
(-2.17131e-38 2.8032e-38 0)
(-1.2268e-37 1.58735e-37 0)
(-2.41604e-37 8.52509e-37 0)
(-7.55695e-37 5.84833e-37 0)
(-6.37221e-37 -1.59559e-36 0)
(4.88425e-37 -1.46177e-36 0)
(4.88425e-37 1.46177e-36 0)
(-6.37221e-37 1.59559e-36 0)
(-7.55695e-37 -5.84833e-37 0)
(-2.41604e-37 -8.52509e-37 0)
(-1.22681e-37 -1.58735e-37 0)
(-2.17203e-38 -2.80272e-38 0)
(-3.96023e-39 -3.50586e-39 0)
(-1.02336e-39 4.31293e-42 0)
(-4.01725e-39 3.54784e-39 0)
(-2.21631e-38 2.84189e-38 0)
(-1.26059e-37 1.61843e-37 0)
(-2.59351e-37 8.76937e-37 0)
(-8.56088e-37 7.15051e-37 0)
(-7.51736e-37 -9.05808e-37 0)
(-2.79195e-43 -1.76107e-36 0)
(7.51738e-37 -9.05798e-37 0)
(8.56193e-37 7.15053e-37 0)
(2.60226e-37 8.74791e-37 0)
(1.28359e-37 1.18801e-37 0)
(-3.62976e-39 4.27292e-39 0)
(-1.73407e-38 2.84414e-38 0)
(-2.28073e-38 1.47179e-37 0)
(-3.43372e-38 9.88624e-38 0)
(-2.60795e-38 -2.80662e-37 0)
(2.60794e-38 -2.80662e-37 0)
(3.43369e-38 9.88629e-38 0)
(2.28024e-38 1.47184e-37 0)
(1.73095e-38 2.85253e-38 0)
(3.32001e-39 5.29384e-39 0)
(6.307e-40 6.96559e-40 0)
(8.41971e-41 8.98019e-41 0)
(-1.18939e-45 1.92631e-41 0)
(-8.421e-41 8.98106e-41 0)
(-6.30834e-40 6.96655e-40 0)
(-3.32126e-39 5.29486e-39 0)
(-1.73209e-38 2.85351e-38 0)
(-2.28891e-38 1.47274e-37 0)
(-3.4979e-38 9.95691e-38 0)
(-2.94862e-38 -2.75278e-37 0)
(8.12776e-39 -2.5143e-37 0)
(8.12776e-39 2.5143e-37 0)
(-2.94862e-38 2.75278e-37 0)
(-3.4979e-38 -9.95691e-38 0)
(-2.28891e-38 -1.47274e-37 0)
(-1.7321e-38 -2.8535e-38 0)
(-3.32253e-39 -5.29383e-39 0)
(-6.42273e-40 -6.86841e-40 0)
(-1.72011e-40 9.12344e-43 0)
(-6.52086e-40 6.95541e-40 0)
(-3.39664e-39 5.3729e-39 0)
(-1.78651e-38 2.91416e-38 0)
(-2.5567e-38 1.51861e-37 0)
(-4.88819e-38 1.22711e-37 0)
(-3.43369e-38 -1.57326e-37 0)
(1.89976e-43 -3.05135e-37 0)
(3.43397e-38 -1.57326e-37 0)
(4.89192e-38 1.22692e-37 0)
(2.58738e-38 1.51355e-37 0)
(1.89382e-38 2.10424e-38 0)
(-4.55986e-40 6.80646e-40 0)
(-2.38577e-39 4.37902e-39 0)
(-2.1135e-39 2.24058e-38 0)
(1.39062e-39 1.48347e-38 0)
(1.52688e-39 -4.277e-38 0)
(-1.52664e-39 -4.27697e-38 0)
(-1.38921e-39 1.48371e-38 0)
(2.12234e-39 2.24238e-38 0)
(2.38411e-39 4.50507e-39 0)
(4.83433e-40 8.68544e-40 0)
(9.59311e-41 1.17915e-40 0)
(1.31571e-41 1.55986e-41 0)
(-2.00118e-46 3.41622e-42 0)
(-1.31593e-41 1.56002e-41 0)
(-9.59531e-41 1.17932e-40 0)
(-4.83637e-40 8.68728e-40 0)
(-2.38592e-39 4.50679e-39 0)
(-2.1359e-39 2.24394e-38 0)
(1.29145e-39 1.49567e-38 0)
(1.02967e-39 -4.18856e-38 0)
(-4.00855e-39 -3.8145e-38 0)
(-4.00855e-39 3.8145e-38 0)
(1.02967e-39 4.18856e-38 0)
(1.29145e-39 -1.49567e-38 0)
(-2.1359e-39 -2.24394e-38 0)
(-2.38595e-39 -4.50678e-39 0)
(-4.83843e-40 -8.68543e-40 0)
(-9.77827e-41 -1.16191e-40 0)
(-2.69021e-41 1.64228e-43 0)
(-9.93469e-41 1.17731e-40 0)
(-4.9539e-40 8.82235e-40 0)
(-2.46834e-39 4.60907e-39 0)
(-2.52157e-39 2.31883e-38 0)
(-5.95669e-40 1.85776e-38 0)
(1.38921e-39 -2.40865e-38 0)
(6.48313e-44 -4.66158e-38 0)
(-1.38844e-39 -2.40868e-38 0)
(6.03965e-40 1.85719e-38 0)
(2.58746e-39 2.30914e-38 0)
(2.70994e-39 3.281e-39 0)
(1.60146e-39 7.58652e-40 0)
(-8.6391e-41 -2.90242e-40 0)
(-1.05958e-40 3.11104e-39 0)
(6.13585e-40 2.11014e-39 0)
(5.48125e-40 -6.20397e-39 0)
(-5.46209e-40 -6.20243e-39 0)
(-6.00224e-40 2.12761e-39 0)
(2.045e-40 3.25015e-39 0)
(3.12451e-40 6.69922e-40 0)
(6.59083e-41 1.3325e-40 0)
(1.34939e-41 1.8535e-41 0)
(1.891e-42 2.50438e-42 0)
(-3.05758e-47 5.57652e-43 0)
(-1.89132e-42 2.50465e-42 0)
(-1.34972e-41 1.85379e-41 0)
(-6.59386e-41 1.3328e-40 0)
(-3.12716e-40 6.70204e-40 0)
(-2.0645e-40 3.25266e-39 0)
(5.86479e-40 2.14644e-39 0)
(4.78527e-40 -6.06652e-39 0)
(-8.72599e-40 -5.51353e-39 0)
(-8.72599e-40 5.51353e-39 0)
(4.78526e-40 6.06652e-39 0)
(5.86479e-40 -2.14644e-39 0)
(-2.0645e-40 -3.25266e-39 0)
(-3.12719e-40 -6.70201e-40 0)
(-6.59691e-41 -1.33249e-40 0)
(-1.37651e-41 -1.82535e-41 0)
(-3.86922e-42 2.71408e-44 0)
(-1.39934e-41 1.85046e-41 0)
(-6.76249e-41 1.35442e-40 0)
(-3.24265e-40 6.86229e-40 0)
(-2.58597e-40 3.36709e-39 0)
(3.41888e-40 2.68061e-39 0)
(6.00242e-40 -3.5051e-39 0)
(1.36009e-44 -6.77182e-39 0)
(-6.00091e-40 -3.50519e-39 0)
(-3.40437e-40 2.67933e-39 0)
(2.69744e-40 3.3503e-39 0)
(3.65513e-40 4.82301e-40 0)
(3.35183e-38 -6.88962e-39 0)
(3.29942e-39 -6.83344e-39 0)
(9.3911e-40 -4.92298e-40 0)
(2.15336e-40 1.83216e-40 0)
(1.03691e-40 -8.46236e-40 0)
(-8.92631e-41 -8.3789e-40 0)
(-1.01878e-40 2.84138e-40 0)
(2.11897e-41 4.38517e-40 0)
(3.9676e-41 9.24649e-41 0)
(8.59424e-42 1.88464e-41 0)
(1.80073e-42 2.67516e-42 0)
(2.56582e-43 3.67664e-43 0)
(-4.34325e-48 8.30212e-44 0)
(-2.56629e-43 3.67706e-43 0)
(-1.80119e-42 2.67561e-42 0)
(-8.5984e-42 1.8851e-41 0)
(-3.97117e-41 9.25072e-41 0)
(-2.14453e-41 4.3889e-40 0)
(1.00154e-40 2.86916e-40 0)
(8.1659e-41 -8.17903e-40 0)
(-1.32031e-40 -7.41936e-40 0)
(-1.32031e-40 7.41936e-40 0)
(8.1659e-41 8.17903e-40 0)
(1.00154e-40 -2.86916e-40 0)
(-2.14453e-41 -4.3889e-40 0)
(-3.97121e-41 -9.25068e-41 0)
(-8.60266e-42 -1.88464e-41 0)
(-1.83807e-42 -2.63325e-42 0)
(-5.2531e-43 4.082e-45 0)
(-1.86945e-42 2.67059e-42 0)
(-8.82691e-42 1.91676e-41 0)
(-4.12483e-41 9.48138e-41 0)
(-2.82019e-41 4.55019e-40 0)
(6.93379e-41 3.60167e-40 0)
(1.01992e-40 -4.74564e-40 0)
(2.36435e-45 -9.15474e-40 0)
(-1.01967e-40 -4.74583e-40 0)
(-6.91134e-41 3.59939e-40 0)
(2.9878e-41 4.52414e-40 0)
(4.74675e-41 6.59347e-41 0)
(5.5115e-37 1.254e-37 0)
(6.2864e-38 -4.63235e-38 0)
(8.26584e-39 -6.02045e-39 0)
(8.27017e-40 -5.24905e-40 0)
(9.10274e-41 -1.54957e-40 0)
(-5.18675e-42 -1.11494e-40 0)
(-1.31504e-41 3.60242e-41 0)
(2.33244e-42 5.64455e-41 0)
(4.80937e-42 1.21176e-41 0)
(1.06249e-42 2.51638e-42 0)
(2.26512e-43 3.62819e-43 0)
(3.27245e-44 5.05184e-44 0)
(-5.03023e-49 1.15317e-44 0)
(-3.27294e-44 5.05247e-44 0)
(-2.26555e-43 3.62889e-43 0)
(-1.06279e-42 2.51712e-42 0)
(-4.81061e-42 1.21248e-41 0)
(-2.32063e-42 5.65159e-41 0)
(1.34969e-41 3.66694e-41 0)
(1.09778e-41 -1.05254e-40 0)
(-1.7111e-41 -9.53332e-41 0)
(-1.7111e-41 9.53332e-41 0)
(1.09778e-41 1.05254e-40 0)
(1.34969e-41 -3.66694e-41 0)
(-2.32064e-42 -5.65159e-41 0)
(-4.81067e-42 -1.21248e-41 0)
(-1.06334e-42 -2.51647e-42 0)
(-2.31317e-43 -3.57003e-43 0)
(-6.70293e-44 5.7143e-46 0)
(-2.35358e-43 3.62185e-43 0)
(-1.0919e-42 2.56053e-42 0)
(-5.00341e-42 1.2437e-41 0)
(-3.15162e-42 5.86638e-41 0)
(9.78705e-42 4.62215e-41 0)
(1.37282e-41 -6.12761e-41 0)
(3.58631e-46 -1.18065e-40 0)
(-1.37246e-41 -6.12794e-41 0)
(-9.75577e-42 4.61852e-41 0)
(3.37916e-42 5.82892e-41 0)
(5.84545e-42 8.57696e-42 0)
(3.9839e-34 -2.03195e-33 0)
(1.23503e-33 -6.31716e-34 0)
(2.74553e-34 -4.37145e-34 0)
(9.19714e-35 -7.76984e-35 0)
(1.51903e-35 -1.31612e-35 0)
(2.61159e-36 -1.67975e-36 0)
(3.44401e-37 -2.08845e-37 0)
(4.45737e-38 -2.27648e-38 0)
(5.0138e-39 -2.41632e-39 0)
(5.43929e-40 -2.44075e-40 0)
(5.20844e-41 -1.65319e-41 0)
(6.00893e-42 1.20899e-41 0)
(2.54699e-42 -3.54198e-42 0)
(-5.83762e-43 -8.98217e-42 0)
(-1.30309e-42 3.73267e-42 0)
(2.19444e-43 5.65123e-42 0)
(4.87906e-43 1.35941e-42 0)
(1.20877e-43 3.04819e-43 0)
(2.75334e-44 4.83713e-44 0)
(4.41615e-45 7.17777e-45 0)
(6.59117e-46 9.03092e-46 0)
(8.3349e-47 1.06989e-46 0)
(9.90985e-48 1.14415e-47 0)
(1.17066e-48 1.052e-48 0)
(1.17707e-48 -1.06175e-48 0)
(9.97311e-48 -1.15402e-47 0)
(8.3773e-47 -1.08021e-46 0)
(6.59995e-46 -9.1307e-46 0)
(4.37371e-45 -7.26878e-45 0)
(2.64675e-44 -4.9103e-44 0)
(1.0218e-43 -3.10206e-43 0)
(2.12642e-43 -1.38876e-42 0)
(-3.49381e-42 -5.75447e-42 0)
(-4.80824e-41 -2.88261e-42 0)
(-5.56551e-40 2.75399e-41 0)
(-6.36449e-39 2.64887e-40 0)
(-6.8403e-38 2.78726e-39 0)
(-7.18107e-37 2.6418e-38 0)
(-6.89022e-36 1.95977e-37 0)
(-6.54628e-35 1.1386e-37 0)
(-5.3553e-34 -3.29258e-35 0)
(-4.45686e-33 -8.55429e-34 0)
(-2.62278e-32 -1.37621e-32 0)
(-1.67032e-31 -1.54188e-31 0)
(8.99749e-34 -9.85883e-31 0)
(1.67357e-31 -1.54184e-31 0)
(1.02798e-32 -1.12428e-32 0)
(1.77513e-32 -4.14569e-33 0)
(3.06896e-33 -3.10862e-33 0)
(7.01079e-34 -4.84092e-34 0)
(1.00715e-34 -7.85655e-35 0)
(1.53759e-35 -9.50592e-36 0)
(1.89912e-36 -1.15213e-36 0)
(2.33348e-37 -1.2199e-37 0)
(2.53567e-38 -1.26868e-38 0)
(2.68253e-39 -1.21341e-39 0)
(2.61223e-40 -1.12316e-40 0)
(2.46911e-41 -8.76055e-42 0)
(2.32828e-42 -1.09957e-42 0)
(1.43495e-43 -7.69989e-43 0)
(-7.57308e-44 2.86692e-43 0)
(1.58495e-44 4.43416e-43 0)
(3.36099e-44 1.07907e-43 0)
(8.42105e-45 2.43854e-44 0)
(1.94673e-45 3.90062e-45 0)
(3.16023e-46 5.81758e-46 0)
(4.77012e-47 7.35599e-47 0)
(6.09036e-48 8.74128e-48 0)
(7.30248e-49 9.3747e-49 0)
(8.70203e-50 8.63495e-50 0)
(8.85835e-50 -8.6685e-50 0)
(7.53122e-49 -9.38442e-49 0)
(6.39957e-48 -8.71311e-48 0)
(5.19008e-47 -7.26412e-47 0)
(3.72602e-46 -5.63184e-46 0)
(2.70618e-45 -3.58238e-45 0)
(1.84069e-44 -1.94862e-44 0)
(1.62725e-43 -3.74889e-44 0)
(1.62915e-42 5.1181e-43 0)
(1.95384e-41 1.20285e-41 0)
(2.27761e-40 1.52955e-40 0)
(2.55776e-39 1.78136e-39 0)
(2.70289e-38 1.98893e-38 0)
(2.76198e-37 2.00541e-37 0)
(2.5967e-36 1.73901e-36 0)
(2.37351e-35 7.68414e-36 0)
(1.89466e-34 -1.16174e-34 0)
(1.48327e-33 -4.5465e-33 0)
(8.5172e-33 -8.55709e-32 0)
(4.78584e-32 -1.16416e-30 0)
(1.71283e-32 -1.09258e-29 0)
(-2.78034e-32 -1.16762e-30 0)
(1.50858e-31 -9.51405e-32 0)
(1.81317e-31 -1.11611e-32 0)
(2.23153e-32 -8.92201e-34 0)
(4.8593e-33 -5.37487e-35 0)
(6.28904e-34 -2.22434e-36 0)
(9.30361e-35 -3.60175e-38 0)
(1.09632e-35 6.00251e-39 0)
(1.31793e-36 9.22337e-40 0)
(1.39456e-37 9.91852e-41 0)
(1.45228e-38 9.01799e-42 0)
(1.39078e-39 8.17144e-43 0)
(1.29546e-40 1.41815e-43 0)
(1.13582e-41 -1.34326e-44 0)
(9.60635e-43 -4.91651e-44 0)
(7.15457e-44 2.0608e-44 0)
(7.13201e-45 3.1398e-44 0)
(2.81989e-45 7.72605e-45 0)
(6.31209e-46 1.76729e-45 0)
(1.41546e-46 2.85709e-46 0)
(2.29095e-47 4.30113e-47 0)
(3.46116e-48 5.48353e-48 0)
(4.43276e-49 6.56145e-49 0)
(5.33064e-50 7.08021e-50 0)
(6.72453e-51 6.54784e-51 0)
(1.22607e-50 -6.6443e-51 0)
(1.46222e-49 -7.19579e-50 0)
(1.86785e-48 -6.71086e-49 0)
(2.47344e-47 -5.67641e-48 0)
(3.31132e-46 -4.55369e-47 0)
(4.48302e-45 -3.1877e-46 0)
(5.97216e-44 -2.20434e-45 0)
(7.83161e-43 -1.34265e-44 0)
(9.91014e-42 -1.05264e-43 0)
(1.21823e-40 -9.47371e-43 0)
(1.4279e-39 -1.13112e-41 0)
(1.62082e-38 -1.31691e-40 0)
(1.73149e-37 -1.44897e-39 0)
(1.79638e-36 -1.37652e-38 0)
(1.71344e-35 -9.47856e-38 0)
(1.60215e-34 3.42102e-37 0)
(1.30572e-33 2.9121e-35 0)
(1.06334e-32 7.27321e-34 0)
(6.32594e-32 1.23561e-32 0)
(3.90616e-31 1.57733e-31 0)
(1.85819e-31 1.39891e-30 0)
(-1.82091e-31 1.57456e-31 0)
(1.54004e-32 -9.29686e-32 0)
(1.51093e-32 -8.55305e-33 0)
(2.67341e-33 2.05471e-33 0)
(6.25963e-34 4.17792e-34 0)
(9.17263e-35 7.5432e-35 0)
(1.42334e-35 9.40584e-36 0)
(1.77836e-36 1.15298e-36 0)
(2.20499e-37 1.22481e-37 0)
(2.41252e-38 1.2747e-38 0)
(2.56653e-39 1.21843e-39 0)
(2.51173e-40 1.13261e-40 0)
(2.37626e-41 9.90854e-42 0)
(2.11443e-42 8.38324e-43 0)
(1.81456e-43 6.43214e-44 0)
(1.4442e-44 6.77353e-45 0)
(1.24396e-45 2.63315e-45 0)
(2.45901e-46 5.83308e-46 0)
(4.65719e-47 1.29499e-46 0)
(9.85543e-48 2.08657e-47 0)
(1.57796e-48 3.14156e-48 0)