/*--------------------------------*- C++ -*----------------------------------*\
| =========                 |                                                 |
| \\      /  F ield         | OpenFOAM: The Open Source CFD Toolbox           |
|  \\    /   O peration     | Version:  2.4.0                                 |
|   \\  /    A nd           | Web:      www.OpenFOAM.org                      |
|    \\/     M anipulation  |                                                 |
\*---------------------------------------------------------------------------*/
FoamFile
{
    version     2.0;
    format      ascii;
    class       volVectorField;
    location    "0.6";
    object      U;
}
// * * * * * * * * * * * * * * * * * * * * * * * * * * * * * * * * * * * * * //

dimensions      [0 1 -1 0 0 0 0];

internalField   nonuniform List<vector> 
1935
(
(7.33818e-36 2.20266e-36 0)
(7.05052e-35 1.57687e-35 0)
(3.64429e-34 1.2366e-34 0)
(3.9018e-33 9.61905e-35 0)
(3.60146e-33 -2.38249e-34 0)
(-3.60025e-33 -2.38e-34 0)
(-3.8933e-33 9.88198e-35 0)
(-2.86249e-34 1.41841e-34 0)
(3.65534e-34 1.55488e-34 0)
(4.26732e-33 2.24884e-34 0)
(7.58132e-33 -1.23407e-34 0)
(4.43503e-34 -3.34439e-34 0)
(-3.15775e-33 9.61902e-35 0)
(3.68052e-33 2.19846e-34 0)
(3.91038e-33 -9.88479e-35 0)
(3.65534e-34 -1.23941e-34 0)
(7.06905e-35 -1.58044e-35 0)
(7.5034e-36 -2.38077e-36 0)
(9.91628e-37 -2.51822e-37 0)
(1.00275e-37 -2.814e-38 0)
(1.08235e-38 -2.66855e-39 0)
(1.00658e-39 -2.54876e-40 0)
(9.45129e-41 -2.20073e-41 0)
(8.73653e-42 -1.72549e-42 0)
(8.78187e-42 1.73696e-42 0)
(9.51366e-41 2.21445e-41 0)
(1.01394e-39 2.56601e-40 0)
(1.09098e-38 2.68867e-39 0)
(1.01186e-37 2.83726e-38 0)
(1.00143e-36 2.54232e-37 0)
(7.59266e-36 2.4062e-36 0)
(7.15798e-35 1.60276e-35 0)
(3.72024e-34 1.26065e-34 0)
(3.97337e-33 1.12215e-34 0)
(3.97337e-33 -1.12215e-34 0)
(3.72024e-34 -1.26065e-34 0)
(7.15798e-35 -1.60276e-35 0)
(7.59266e-36 -2.4062e-36 0)
(1.00143e-36 -2.54232e-37 0)
(1.01186e-37 -2.8373e-38 0)
(1.09081e-38 -2.6921e-39 0)
(1.00203e-39 -2.81014e-40 0)
(4.17464e-41 -1.93045e-40 0)
(-2.48853e-40 -7.71034e-40 0)
(2.07692e-36 -1.00191e-36 0)
(1.79196e-35 -8.26512e-36 0)
(9.22745e-35 -6.48061e-35 0)
(6.52565e-34 -5.03214e-35 0)
(5.76351e-34 1.24719e-34 0)
(-5.75991e-34 1.24597e-34 0)
(-6.50083e-34 -5.16415e-35 0)
(-7.21135e-35 -7.42904e-35 0)
(9.26049e-35 -8.14894e-35 0)
(7.45167e-34 -1.17658e-34 0)
(1.24904e-33 6.46827e-35 0)
(1.127e-34 1.7504e-34 0)
(-4.63588e-34 -5.03213e-35 0)
(5.96772e-34 -1.15126e-34 0)
(6.55072e-34 5.16548e-35 0)
(9.26049e-35 6.49435e-35 0)
(1.79812e-35 8.28759e-36 0)
(2.18478e-36 1.19839e-36 0)
(2.94134e-37 1.23198e-37 0)
(3.16145e-38 1.32835e-38 0)
(3.4735e-39 1.22561e-39 0)
(3.3416e-40 1.14061e-40 0)
(3.18445e-41 9.64265e-42 0)
(3.01103e-42 7.43004e-43 0)
(3.02705e-42 -7.47791e-43 0)
(3.20616e-41 -9.70078e-42 0)
(3.36694e-40 -1.14803e-40 0)
(3.50252e-39 -1.23445e-39 0)
(3.19164e-38 -1.33878e-38 0)
(2.97268e-37 -1.24308e-37 0)
(2.21286e-36 -1.21043e-36 0)
(1.82431e-35 -8.39727e-36 0)
(9.44886e-35 -6.60162e-35 0)
(6.70805e-34 -5.87173e-35 0)
(6.70805e-34 5.87173e-35 0)
(9.44886e-35 6.60162e-35 0)
(1.82431e-35 8.39727e-36 0)
(2.21286e-36 1.21043e-36 0)
(2.97267e-37 1.24307e-37 0)
(3.19138e-38 1.33845e-38 0)
(3.48403e-39 1.20503e-39 0)
(2.07089e-40 -9.84229e-41 0)
(-5.52716e-40 -1.50954e-39 0)
(-2.84547e-39 -7.02275e-39 0)
(5.15384e-37 -2.93588e-37 0)
(3.70804e-36 -2.33525e-36 0)
(1.3865e-35 -1.49015e-35 0)
(7.58729e-35 -1.08285e-35 0)
(6.52821e-35 2.84597e-35 0)
(-6.51848e-35 2.84208e-35 0)
(-7.52765e-35 -1.12215e-35 0)
(-9.6276e-36 -1.75972e-35 0)
(1.39532e-35 -1.96199e-35 0)
(8.9825e-35 -2.64809e-35 0)
(1.45381e-34 1.48621e-35 0)
(1.81714e-35 3.92881e-35 0)
(-4.70927e-35 -1.08285e-35 0)
(6.95874e-35 -2.57294e-35 0)
(7.6476e-35 1.12258e-35 0)
(1.39532e-35 1.49454e-35 0)
(3.72135e-36 2.34208e-36 0)
(5.17164e-37 3.54206e-37 0)
(7.82375e-38 3.92812e-38 0)
(9.00018e-39 4.34719e-39 0)
(1.04513e-39 4.17571e-40 0)
(1.04436e-40 3.96185e-41 0)
(1.0264e-41 3.43742e-42 0)
(9.94639e-43 2.68579e-43 0)
(1.00009e-42 -2.70368e-43 0)
(1.03369e-41 -3.45884e-42 0)
(1.05271e-40 -3.98869e-41 0)
(1.05446e-39 -4.20714e-40 0)
(9.0942e-39 -4.38333e-39 0)
(7.91763e-38 -3.96585e-38 0)
(5.25099e-37 -3.58128e-37 0)
(3.79038e-36 -2.37694e-36 0)
(1.43901e-35 -1.52595e-35 0)
(7.96621e-35 -1.3205e-35 0)
(7.96621e-35 1.3205e-35 0)
(1.43901e-35 1.52595e-35 0)
(3.79038e-36 2.37694e-36 0)
(5.25098e-37 3.58128e-37 0)
(7.91738e-38 3.96557e-38 0)
(9.07194e-39 4.35664e-39 0)
(8.93626e-40 1.82741e-40 0)
(-1.03607e-39 -1.70405e-39 0)
(-5.20696e-39 -1.25962e-38 0)
(-2.57885e-38 -5.92235e-38 0)
(8.82604e-38 -8.20186e-38 0)
(5.49724e-37 -5.91735e-37 0)
(1.52614e-36 -3.52577e-36 0)
(6.70015e-36 -2.50563e-36 0)
(5.652e-36 6.73176e-36 0)
(-5.63419e-36 6.72043e-36 0)
(-6.59939e-36 -2.6145e-36 0)
(-8.88209e-37 -4.21637e-36 0)
(1.54212e-36 -4.72239e-36 0)
(8.24202e-36 -6.23869e-36 0)
(1.29878e-35 3.51392e-36 0)
(2.17628e-36 9.23732e-36 0)
(-3.47227e-36 -2.50555e-36 0)
(6.30201e-36 -6.03081e-36 0)
(6.80211e-36 2.61583e-36 0)
(1.54212e-36 3.53834e-36 0)
(5.51694e-37 5.93516e-37 0)
(8.63655e-38 9.76194e-38 0)
(1.41586e-38 1.14767e-38 0)
(1.72193e-39 1.34008e-39 0)
(2.0751e-40 1.33862e-40 0)
(2.13857e-41 1.31232e-41 0)
(2.14779e-42 1.16736e-42 0)
(2.12432e-43 9.29617e-44 0)
(2.13625e-43 -9.36e-44 0)
(2.16354e-42 -1.1749e-42 0)
(2.15634e-41 -1.32161e-41 0)
(2.09459e-40 -1.34927e-40 0)
(1.74114e-39 -1.35202e-39 0)
(1.43444e-38 -1.15972e-38 0)
(8.78756e-38 -9.88233e-38 0)
(5.64087e-37 -6.03626e-37 0)
(1.61391e-36 -3.62421e-36 0)
(7.26398e-36 -3.10904e-36 0)
(7.26398e-36 3.10904e-36 0)
(1.61391e-36 3.62421e-36 0)
(5.64087e-37 6.03626e-37 0)
(8.78734e-38 9.88212e-38 0)
(1.43241e-38 1.15756e-38 0)
(1.56081e-39 1.15037e-39 0)
(-1.10735e-39 -1.68586e-39 0)
(-9.453e-39 -1.35171e-38 0)
(-4.40316e-38 -9.95192e-38 0)
(-2.21095e-37 -4.77829e-37 0)
(1.17046e-38 -2.86835e-38 0)
(7.91442e-38 -1.08121e-37 0)
(1.43446e-37 -5.79717e-37 0)
(4.23528e-37 -3.99958e-37 0)
(3.47236e-37 1.09973e-36 0)
(-3.44133e-37 1.09763e-36 0)
(-4.07292e-37 -4.19594e-37 0)
(-5.11721e-38 -6.98569e-37 0)
(1.4578e-37 -7.86448e-37 0)
(5.68993e-37 -1.01448e-36 0)
(8.61926e-37 5.74402e-37 0)
(2.37001e-37 1.49922e-36 0)
(-1.09574e-37 -3.99375e-37 0)
(4.41099e-37 -9.75973e-37 0)
(4.39436e-37 4.1986e-37 0)
(1.4578e-37 5.79141e-37 0)
(7.83844e-38 1.03953e-37 0)
(1.35293e-38 1.80244e-38 0)
(2.39479e-39 2.2228e-39 0)
(3.04311e-40 2.6864e-40 0)
(3.79465e-41 2.76676e-41 0)
(4.00877e-42 2.77238e-42 0)
(4.10493e-43 2.5153e-43 0)
(4.12735e-44 2.03012e-44 0)
(4.151e-44 -2.04441e-44 0)
(4.13584e-43 -2.53199e-43 0)
(4.04323e-42 -2.79267e-42 0)
(3.83183e-41 -2.78968e-41 0)
(3.07903e-40 -2.71157e-40 0)
(2.42865e-39 -2.24765e-39 0)
(1.37949e-38 -1.82649e-38 0)
(8.04668e-38 -1.05901e-37 0)
(1.56838e-37 -5.94887e-37 0)
(5.0368e-37 -5.05249e-37 0)
(5.0368e-37 5.05249e-37 0)
(1.56838e-37 5.94887e-37 0)
(8.04652e-38 1.059e-37 0)
(1.37784e-38 1.82509e-38 0)
(2.27522e-39 2.09965e-39 0)
(-1.07457e-39 -1.12409e-39 0)
(-1.01967e-38 -1.27511e-38 0)
(-7.49546e-38 -9.66198e-38 0)
(-3.55824e-37 -7.2576e-37 0)
(-1.82391e-36 -3.58328e-36 0)
(-2.01633e-38 -1.12149e-37 0)
(1.91916e-38 -5.38718e-38 0)
(1.54627e-38 -1.16012e-37 0)
(1.61285e-38 -6.67799e-38 0)
(1.05947e-38 1.72769e-37 0)
(-9.62758e-39 1.73135e-37 0)
(-1.1579e-38 -6.56763e-38 0)
(-2.21313e-40 -1.11142e-37 0)
(1.25904e-38 -1.25426e-37 0)
(2.64104e-38 -1.59808e-37 0)
(3.58932e-38 9.06026e-38 0)
(2.44554e-38 2.35809e-37 0)
(1.43867e-38 -6.21659e-38 0)
(2.24229e-38 -1.5316e-37 0)
(1.60961e-38 6.57106e-38 0)
(1.25902e-38 9.14505e-38 0)
(1.00914e-38 1.7043e-38 0)
(1.87929e-39 3.10422e-39 0)
(3.51212e-40 3.96892e-40 0)
(4.6231e-41 4.95029e-41 0)
(5.91558e-42 5.22343e-42 0)
(6.3813e-43 5.33663e-43 0)
(6.63726e-44 4.91807e-44 0)
(6.77024e-45 4.01523e-45 0)
(6.80972e-45 -4.04404e-45 0)
(6.6884e-44 -4.95143e-44 0)
(6.43772e-43 -5.37676e-43 0)
(5.9756e-42 -5.2682e-42 0)
(4.68017e-41 -4.99866e-41 0)
(3.56477e-40 -4.01573e-40 0)
(1.91947e-39 -3.1484e-39 0)
(1.03951e-38 -1.73894e-38 0)
(1.41064e-38 -9.41473e-38 0)
(2.42153e-38 -7.955e-38 0)
(2.42153e-38 7.955e-38 0)
(1.41054e-38 9.41467e-38 0)
(1.03844e-38 1.73814e-38 0)
(1.80634e-39 3.06029e-39 0)
(-7.08068e-40 -5.41085e-40 0)
(-9.6802e-39 -8.96239e-39 0)
(-7.32301e-38 -8.41216e-38 0)
(-5.47358e-37 -6.50725e-37 0)
(-2.66932e-36 -5.03319e-36 0)
(-1.39768e-35 -2.57941e-35 0)
(-1.65035e-37 -8.25667e-37 0)
(8.09792e-38 -2.76143e-37 0)
(2.85823e-38 -1.99615e-37 0)
(1.75011e-38 -4.23591e-38 0)
(2.2141e-39 1.76546e-38 0)
(1.97309e-39 2.30551e-38 0)
(1.65801e-39 -9.07263e-39 0)
(4.8758e-40 -1.54511e-38 0)
(1.11114e-39 -1.74697e-38 0)
(-1.60436e-40 -2.19787e-38 0)
(-9.99147e-40 1.24836e-38 0)
(2.62548e-39 3.23854e-38 0)
(3.88963e-39 -8.44725e-39 0)
(3.19885e-40 -2.09907e-38 0)
(-9.64516e-40 8.97501e-39 0)
(1.10988e-39 1.26135e-38 0)
(1.28002e-39 2.43617e-39 0)
(2.5067e-40 4.6028e-40 0)
(4.87957e-41 6.06731e-41 0)
(6.59199e-42 7.7526e-42 0)
(8.61139e-43 8.35008e-43 0)
(9.44173e-44 8.66493e-44 0)
(9.94678e-45 8.09485e-45 0)
(1.02626e-45 6.6726e-46 0)
(1.03232e-45 -6.72132e-46 0)
(1.00248e-44 -8.15082e-45 0)
(9.52711e-44 -8.73162e-44 0)
(8.70124e-43 -8.42369e-43 0)
(6.67629e-42 -7.83103e-42 0)
(4.95605e-41 -6.142e-41 0)
(2.56381e-40 -4.67182e-40 0)
(1.32203e-39 -2.48892e-39 0)
(1.31002e-39 -1.30114e-38 0)
(5.15448e-41 -1.09354e-38 0)
(5.10722e-41 1.0935e-38 0)
(1.30389e-39 1.30079e-38 0)
(1.25433e-39 2.44607e-39 0)
(-4.66888e-40 -1.12804e-41 0)
(-6.84994e-39 -5.12649e-39 0)
(-6.42032e-38 -5.0424e-38 0)
(-4.93904e-37 -4.81263e-37 0)
(-3.79397e-36 -3.83586e-36 0)
(-1.91449e-35 -3.07557e-35 0)
(-1.03518e-34 -1.6617e-34 0)
(-1.09785e-36 -5.69202e-36 0)
(7.44426e-37 -1.92811e-36 0)
(2.30654e-37 -1.3559e-36 0)
(1.42595e-37 -2.4065e-37 0)
(2.53374e-38 -4.00548e-38 0)
(5.05842e-39 -2.36279e-39 0)
(9.89769e-40 -1.87532e-39 0)
(1.68806e-40 -2.13081e-39 0)
(1.117e-40 -2.33875e-39 0)
(-2.24316e-40 -2.90941e-39 0)
(-4.40841e-40 1.65325e-39 0)
(2.85668e-40 4.28113e-39 0)
(5.83561e-40 -1.10834e-39 0)
(-1.06462e-40 -2.77021e-39 0)
(-2.90013e-40 1.18244e-39 0)
(1.03029e-40 1.67193e-39 0)
(1.53454e-40 3.30891e-40 0)
(3.11527e-41 6.44171e-41 0)
(6.2404e-42 8.68997e-42 0)
(8.60897e-43 1.13251e-42 0)
(1.14299e-43 1.23953e-43 0)
(1.2706e-44 1.30277e-44 0)
(1.35277e-45 1.23023e-45 0)
(1.40966e-46 1.02202e-46 0)
(1.41809e-46 -1.02958e-46 0)
(1.36355e-45 -1.23887e-45 0)
(1.28231e-44 -1.31298e-44 0)
(1.15519e-43 -1.25071e-43 0)
(8.72227e-43 -1.14429e-42 0)
(6.34173e-42 -8.80068e-42 0)
(3.18965e-41 -6.54232e-41 0)
(1.58807e-40 -3.38423e-40 0)
(1.27695e-40 -1.72741e-39 0)
(-1.69664e-40 -1.44674e-39 0)
(-1.722e-40 1.44527e-39 0)
(9.45302e-41 1.71021e-39 0)
(-2.11209e-40 1.28654e-40 0)
(-3.97296e-39 -2.30889e-39 0)
(-3.88093e-38 -2.62205e-38 0)
(-3.68664e-37 -2.60614e-37 0)
(-2.91107e-36 -2.56755e-36 0)
(-2.3057e-35 -2.13228e-35 0)
(-1.21546e-34 -1.80745e-34 0)
(-6.77903e-34 -1.0498e-33 0)
(-5.46707e-36 -3.81498e-35 0)
(7.22811e-36 -1.22508e-35 0)
(1.98354e-36 -8.58667e-36 0)
(1.06392e-36 -1.47813e-36 0)
(1.82459e-37 -2.56549e-37 0)
(3.27802e-38 -3.15541e-38 0)
(4.24142e-39 -4.05865e-39 0)
(5.4011e-40 -6.61402e-40 0)
(6.64966e-41 -3.29293e-40 0)
(-3.15102e-41 -3.60225e-40 0)
(-6.78349e-41 2.02464e-40 0)
(3.16844e-41 5.24066e-40 0)
(7.40571e-41 -1.34706e-40 0)
(-2.00072e-41 -3.38625e-40 0)
(-4.30313e-41 1.44249e-40 0)
(1.03038e-41 2.05241e-40 0)
(1.78633e-41 4.15409e-41 0)
(3.71379e-42 8.27529e-42 0)
(7.59824e-43 1.13835e-42 0)
(1.0651e-43 1.50699e-43 0)
(1.43242e-44 1.67212e-44 0)
(1.60991e-45 1.77601e-45 0)
(1.72873e-46 1.6929e-46 0)
(1.81591e-47 1.41571e-47 0)
(1.82688e-47 -1.42632e-47 0)
(1.74269e-46 -1.70494e-46 0)
(1.62498e-45 -1.79016e-45 0)
(1.44799e-44 -1.68749e-44 0)
(1.07943e-43 -1.52304e-43 0)
(7.72477e-43 -1.15327e-42 0)
(3.80522e-42 -8.40905e-42 0)
(1.85075e-41 -4.25268e-41 0)
(1.31482e-41 -2.1237e-40 0)
(-3.0169e-41 -1.77565e-40 0)
(-4.25631e-41 1.72487e-40 0)
(-1.5082e-40 1.5245e-40 0)
(-1.83561e-39 -6.96509e-40 0)
(-2.04294e-38 -8.47997e-39 0)
(-2.02082e-37 -9.56673e-38 0)
(-1.97345e-36 -9.78076e-37 0)
(-1.60919e-35 -1.00457e-35 0)
(-1.33103e-34 -8.91801e-35 0)
(-7.38855e-34 -8.18795e-34 0)
(-4.37515e-33 -5.37197e-33 0)
(-1.05265e-35 -2.20538e-34 0)
(7.44226e-35 -7.47323e-35 0)
(1.69096e-35 -5.47122e-35 0)
(7.05137e-36 -8.9771e-36 0)
(1.1363e-36 -1.49773e-36 0)
(1.94e-37 -1.79095e-37 0)
(2.40933e-38 -2.13503e-38 0)
(2.96765e-39 -2.19544e-39 0)
(3.11266e-40 -2.49363e-40 0)
(2.69267e-41 -6.12482e-41 0)
(-5.42695e-42 2.21352e-41 0)
(3.67498e-42 6.1358e-41 0)
(8.47448e-42 -1.57278e-41 0)
(-2.54646e-42 -3.96878e-41 0)
(-5.17512e-42 1.6881e-41 0)
(1.05324e-42 2.41336e-41 0)
(1.97421e-42 4.96848e-42 0)
(4.1824e-43 1.00715e-42 0)
(8.69411e-44 1.40611e-43 0)
(1.23532e-44 1.88371e-44 0)
(1.6788e-45 2.112e-45 0)
(1.90485e-46 2.2611e-46 0)
(2.06024e-47 2.17058e-47 0)
(2.1794e-48 1.82407e-48 0)
(2.1926e-48 -1.83787e-48 0)
(2.07692e-47 -2.1862e-47 0)
(1.92268e-46 -2.27938e-46 0)
(1.69697e-45 -2.13179e-45 0)
(1.25164e-44 -1.90427e-44 0)
(8.83291e-44 -1.42516e-43 0)
(4.27443e-43 -1.02419e-42 0)
(2.0278e-42 -5.09519e-42 0)
(1.09697e-42 -2.50744e-41 0)
(-7.44919e-42 -2.18975e-41 0)
(-5.1858e-41 5.97631e-42 0)
(-5.93016e-40 -1.65397e-40 0)
(-6.81441e-39 -2.387e-39 0)
(-7.65071e-38 -2.80038e-38 0)
(-7.74447e-37 -3.25594e-37 0)
(-7.78403e-36 -3.46178e-36 0)
(-6.6005e-35 -3.81189e-35 0)
(-5.7048e-34 -3.72717e-34 0)
(-3.38286e-33 -3.90325e-33 0)
(-2.10555e-32 -2.9895e-32 0)
(2.80185e-34 -1.56344e-33 0)
(8.52861e-34 -4.29207e-34 0)
(1.67912e-34 -2.95183e-34 0)
(5.59018e-35 -4.61674e-35 0)
(8.24445e-36 -7.22814e-36 0)
(1.32863e-36 -8.29285e-37 0)
(1.58011e-37 -9.50903e-38 0)
(1.89157e-38 -9.40418e-39 0)
(1.92976e-39 -9.17742e-40 0)
(1.92605e-40 -8.44553e-41 0)
(1.6776e-41 -5.10437e-42 0)
(1.79485e-42 4.34246e-42 0)
(7.90888e-43 -1.29211e-42 0)
(-1.99486e-43 -3.16668e-42 0)
(-4.15827e-43 1.34459e-42 0)
(7.85269e-44 1.92953e-42 0)
(1.53305e-43 4.03848e-43 0)
(3.28893e-44 8.38044e-44 0)
(6.9108e-45 1.19078e-44 0)
(9.91065e-46 1.62295e-45 0)
(1.35631e-46 1.84553e-46 0)
(1.54869e-47 2.00089e-47 0)
(1.68266e-48 1.94165e-48 0)
(1.78758e-49 1.64581e-49 0)
(1.79572e-49 -1.65836e-49 0)
(1.69131e-48 -1.95569e-48 0)
(1.55473e-47 -2.0171e-47 0)
(1.35699e-46 -1.86272e-46 0)
(9.81735e-46 -1.64032e-45 0)
(6.67147e-45 -1.20615e-44 0)
(2.83636e-44 -8.50791e-44 0)
(8.0816e-44 -4.1174e-43 0)
(-9.88615e-43 -1.96749e-42 0)
(-1.51408e-41 -1.20335e-42 0)
(-1.9114e-40 7.70632e-42 0)
(-2.39839e-39 7.71625e-41 0)
(-2.80471e-38 8.89992e-40 0)
(-3.23556e-37 9.28619e-39 0)
(-3.36613e-36 7.77464e-38 0)
(-3.52891e-35 8.70955e-38 0)
(-3.11754e-34 -1.50643e-35 0)
(-2.89565e-33 -4.54546e-34 0)
(-1.83554e-32 -8.38158e-33 0)
(-1.34162e-31 -1.07668e-31 0)
(8.31868e-33 -9.095e-33 0)
(1.40199e-32 -3.15358e-33 0)
(2.12161e-33 -2.41623e-33 0)
(4.57735e-34 -3.31687e-34 0)
(5.87588e-35 -5.00129e-35 0)
(8.35356e-36 -5.43762e-36 0)
(9.31719e-37 -6.09271e-37 0)
(1.05772e-37 -5.85017e-38 0)
(1.04347e-38 -5.60276e-39 0)
(1.01538e-39 -4.87636e-40 0)
(9.00185e-41 -4.14696e-41 0)
(7.80296e-42 -2.96498e-42 0)
(6.71299e-43 -3.46754e-43 0)
(3.60766e-44 -2.45504e-43 0)
(-2.27155e-44 9.47958e-44 0)
(5.09778e-45 1.38379e-43 0)
(9.63296e-45 2.92815e-44 0)
(2.08979e-45 6.11564e-45 0)
(4.4535e-46 8.75284e-46 0)
(6.45961e-47 1.19759e-46 0)
(8.93317e-48 1.36762e-47 0)
(1.02918e-48 1.48576e-48 0)
(1.12679e-49 1.44488e-49 0)
(1.20644e-50 1.22583e-50 0)
(1.22541e-50 -1.22938e-50 0)
(1.15725e-49 -1.44554e-49 0)
(1.07455e-48 -1.48081e-48 0)
(9.61249e-48 -1.3517e-47 0)
(7.46526e-47 -1.1633e-46 0)
(5.93756e-46 -8.11562e-46 0)
(4.22838e-45 -5.04653e-45 0)
(3.99768e-44 -1.24959e-44 0)
(4.19893e-43 1.10842e-43 0)
(5.50772e-42 3.41749e-42 0)
(7.01532e-41 4.78331e-41 0)
(8.64296e-40 6.08829e-40 0)
(9.96211e-39 7.48182e-39 0)
(1.11854e-37 8.28763e-38 0)
(1.14436e-36 8.06358e-37 0)
(1.15395e-35 4.17271e-36 0)
(1.0001e-34 -5.83969e-35 0)
(8.73692e-34 -2.78109e-33 0)
(5.44792e-33 -6.00371e-32 0)
(3.52513e-32 -9.34245e-31 0)
(1.38176e-31 -8.64643e-32 0)
(1.62821e-31 -8.84639e-33 0)
(1.76692e-32 -6.13123e-34 0)
(3.66453e-33 -3.19876e-35 0)
(4.23375e-34 -1.12068e-36 0)
(5.85572e-35 -1.20569e-38 0)
(6.22324e-36 2.98978e-39 0)
(6.92572e-37 3.84546e-40 0)
(6.6474e-38 3.71857e-41 0)
(6.37387e-39 3.05384e-42 0)
(5.55345e-40 2.51954e-43 0)
(4.74753e-41 4.06573e-44 0)
(3.79197e-42 -4.40568e-45 0)
(2.93867e-43 -1.44733e-44 0)
(2.00367e-44 6.18223e-45 0)
(1.86759e-45 8.92399e-45 0)
(7.26291e-46 1.90939e-45 0)
(1.42777e-46 4.03391e-46 0)
(2.95398e-47 5.83209e-47 0)
(4.27238e-48 8.04828e-48 0)
(5.90844e-49 9.26182e-49 0)
(6.82385e-50 1.01244e-49 0)
(7.48546e-51 9.90098e-51 0)
(8.47335e-52 8.42985e-52 0)
(1.60668e-51 -8.53758e-52 0)
(2.14057e-50 -1.00458e-50 0)
(3.02442e-49 -1.03336e-49 0)
(4.42937e-48 -9.56268e-49 0)
(6.52304e-47 -8.4872e-48 0)
(9.71216e-46 -6.46876e-47 0)
(1.41744e-44 -4.96524e-46 0)
(2.03856e-43 -3.24559e-45 0)
(2.82054e-42 -2.79721e-44 0)
(3.80044e-41 -2.67804e-43 0)
(4.86349e-40 -3.50786e-42 0)
(6.05354e-39 -4.46806e-41 0)
(7.04668e-38 -5.4359e-40 0)
(8.02705e-37 -5.73659e-39 0)
(8.31992e-36 -4.65801e-38 0)
(8.57216e-35 8.78929e-38 0)
(7.56887e-34 1.45221e-35 0)
(6.86092e-33 4.29538e-34 0)
(4.41886e-32 8.41831e-33 0)
(3.11454e-31 1.23651e-31 0)
(1.24967e-32 -8.46907e-32 0)
(1.18746e-32 -6.7636e-33 0)
(1.84616e-33 1.70413e-33 0)
(4.09122e-34 2.92929e-34 0)
(5.35873e-35 4.84417e-35 0)
(7.74412e-36 5.39601e-36 0)
(8.73592e-37 6.09982e-37 0)
(1.00065e-37 5.87078e-38 0)
(9.93825e-39 5.62496e-39 0)
(9.72389e-40 4.893e-40 0)
(8.66231e-41 4.17589e-41 0)
(7.51686e-42 3.32946e-42 0)
(6.09616e-43 2.5814e-43 0)
(4.79038e-44 1.81023e-44 0)
(3.47639e-45 1.76518e-45 0)
(2.77615e-46 6.73678e-46 0)
(5.53791e-47 1.31336e-46 0)
(9.47743e-48 2.69436e-47 0)
(1.86416e-48 3.88301e-48 0)
(2.67363e-49 5.35461e-49 0)
(3.69227e-50 6.17396e-50 0)
(4.27493e-51 6.7559e-51 0)
(4.70049e-52 6.61527e-52 0)
(5.29736e-53 5.32481e-53 0)
(9.34409e-53 -1.14121e-52 0)
(1.19918e-51 -1.68684e-51 0)
(1.63252e-50 -2.45296e-50 0)
(2.30323e-49 -3.61278e-49 0)
(3.27764e-48 -5.45454e-48 0)
(4.72263e-47 -8.2134e-47 0)
(6.70055e-46 -1.23821e-45 0)
(9.33135e-45 -1.82099e-44 0)
(1.25585e-43 -2.62956e-43 0)
(1.62734e-42 -3.64602e-42 0)
(2.01702e-41 -4.9184e-41 0)
(2.38078e-40 -6.27142e-40 0)
(2.66429e-39 -7.69542e-39 0)
(2.80639e-38 -8.46858e-38 0)
(2.76601e-37 -8.05145e-37 0)
(2.50261e-36 -3.50787e-36 0)
(2.06764e-35 8.07939e-35 0)
(1.43821e-34 3.31909e-33 0)
(8.60896e-34 6.99581e-32 0)
(2.21073e-33 1.07403e-30 0)
(2.72661e-33 -7.13002e-33 0)
(-3.96257e-34 -8.37883e-34 0)
(3.16905e-36 1.64594e-34 0)
(2.65242e-35 3.61263e-35 0)
(5.08023e-36 6.38416e-36 0)
(9.5371e-37 7.60615e-37 0)
(1.2202e-37 8.8699e-38 0)
(1.53721e-38 8.8427e-39 0)
(1.62041e-39 8.64918e-40 0)
(1.66156e-40 7.69528e-41 0)
(1.53025e-41 6.66814e-42 0)
(1.36397e-42 5.40054e-43 0)
(1.12873e-43 4.24184e-44 0)
(9.02626e-45 3.1076e-45 0)
(6.76635e-46 2.53138e-46 0)
(5.10657e-47 5.10232e-47 0)
(5.73631e-48 8.71539e-48 0)
(7.35593e-49 1.70294e-48 0)
(1.23523e-49 2.43431e-49 0)
(1.69277e-50 3.35178e-50 0)
(2.29049e-51 3.87376e-51 0)
(2.63482e-52 4.24836e-52 0)
(2.78646e-53 4.17283e-53 0)
(-1.54236e-53 3.65988e-54 0)
(-3.27603e-52 -1.76386e-54 0)
(-5.73147e-51 -9.05503e-54 0)
(-9.71927e-50 1.53228e-52 0)
(-1.60471e-48 6.02921e-51 0)
(-2.56321e-47 1.31872e-49 0)
(-3.98512e-46 2.42042e-48 0)
(-5.96759e-45 4.01356e-47 0)
(-8.69724e-44 6.21375e-46 0)
(-1.21261e-42 9.21553e-45 0)
(-1.64698e-41 1.29466e-43 0)
(-2.11757e-40 1.78429e-42 0)
(-2.66157e-39 2.3468e-41 0)
(-3.11246e-38 3.2011e-40 0)
(-3.59136e-37 4.56648e-39 0)
(-3.73671e-36 7.96289e-38 0)
(-3.91916e-35 1.58602e-36 0)
(-3.463e-34 3.39954e-35 0)
(-3.21917e-33 6.60691e-34 0)
(-2.04117e-32 1.07897e-32 0)
(-1.49423e-31 1.29992e-31 0)
(2.63467e-34 -1.34299e-33 0)
(-9.3502e-35 -1.58902e-34 0)
(-1.05971e-35 9.71916e-36 0)
(8.58031e-37 3.70758e-36 0)
(3.36668e-37 8.18497e-37 0)
(8.09902e-38 1.08358e-37 0)
(1.15111e-38 1.37774e-38 0)
(1.54744e-39 1.45407e-39 0)
(1.70662e-40 1.48957e-40 0)
(1.80578e-41 1.37021e-41 0)
(1.70628e-42 1.21984e-42 0)
(1.55009e-43 1.0084e-43 0)
(1.30413e-44 8.05859e-45 0)
(1.05664e-45 6.05619e-46 0)
(8.04925e-47 4.59879e-47 0)
(6.03332e-48 5.22307e-48 0)
(5.48923e-49 6.72792e-49 0)
(5.73735e-50 1.12717e-49 0)
(8.1167e-51 1.54123e-50 0)
(1.04393e-51 2.08002e-51 0)
(1.36967e-52 2.38915e-52 0)
(1.56046e-53 2.61261e-53 0)
(1.94372e-54 2.72475e-54 0)
(4.63762e-54 3.24881e-54 0)
(7.92994e-53 5.52578e-53 0)
(1.37121e-51 9.86551e-52 0)
(2.3032e-50 1.71778e-50 0)
(3.76647e-49 2.90398e-49 0)
(5.95989e-48 4.78208e-48 0)
(9.16674e-47 7.62112e-47 0)
(1.35755e-45 1.18209e-45 0)
(1.9516e-44 1.76623e-44 0)
(2.68256e-43 2.56725e-43 0)
(3.57704e-42 3.57031e-42 0)
(4.51238e-41 4.83319e-41 0)
(5.5276e-40 6.19611e-40 0)
(6.2953e-39 7.75883e-39 0)
(6.99534e-38 9.05733e-38 0)
(7.00295e-37 1.04477e-36 0)
(6.92687e-36 1.09835e-35 0)
(5.76709e-35 1.1782e-34 0)
(4.86227e-34 1.10611e-33 0)
(2.7998e-33 1.09767e-32 0)
(1.68706e-32 7.88828e-32 0)
(3.3826e-35 -1.26739e-34 0)
(-1.58298e-35 -1.71477e-35 0)
(-2.11418e-36 8.78936e-38 0)
(-1.19516e-37 2.61912e-37 0)
(1.16137e-38 7.12801e-38 0)
(6.00113e-39 1.03328e-38 0)
(1.01322e-39 1.39397e-39 0)
(1.5065e-40 1.53667e-40 0)
(1.76076e-41 1.62354e-41 0)
(1.94393e-42 1.53205e-42 0)
(1.89289e-43 1.39011e-43 0)
(1.76043e-44 1.16838e-44 0)
(1.50806e-45 9.45944e-46 0)
(1.23981e-46 7.21229e-47 0)
(9.57593e-48 5.4205e-48 0)
(7.1887e-49 4.96671e-49 0)
(5.79997e-50 5.22031e-50 0)
(5.10392e-51 7.39216e-51 0)
(5.81929e-52 9.49841e-52 0)
(6.70262e-53 1.24371e-52 0)
(8.26056e-54 1.4137e-53 0)
(1.04006e-54 1.54644e-54 0)
(2.44484e-54 3.22707e-55 0)
(4.29422e-53 3.23929e-54 0)
(7.64878e-52 5.909e-53 0)
(1.32922e-50 1.05419e-51 0)
(2.24353e-49 1.8348e-50 0)
(3.68926e-48 3.10175e-49 0)
(5.87184e-47 5.10961e-48 0)
(9.09516e-46 8.14749e-47 0)
(1.35711e-44 1.26474e-45 0)
(1.96942e-43 1.89137e-44 0)
(2.73438e-42 2.75224e-43 0)
(3.69377e-41 3.83233e-42 0)
(4.72443e-40 5.19746e-41 0)
(5.89559e-39 6.68192e-40 0)
(6.84812e-38 8.41966e-39 0)
(7.8236e-37 9.97812e-38 0)
(8.0677e-36 1.19491e-36 0)
(8.3396e-35 1.37505e-35 0)
(7.27859e-34 1.73952e-34 0)
(6.61332e-33 2.16128e-33 0)
(4.11997e-32 2.797e-32 0)
(2.88734e-31 2.81458e-31 0)
(3.0738e-36 -1.57852e-35 0)
(-1.51659e-36 -2.18322e-36 0)
(-2.2284e-37 -1.30795e-37 0)
(-2.13157e-38 9.36732e-39 0)
(-4.15327e-40 5.4117e-39 0)
(3.50335e-40 9.18722e-40 0)
(7.33264e-41 1.36364e-40 0)
(1.20222e-41 1.59063e-41 0)
(1.48312e-42 1.75258e-42 0)
(1.69823e-43 1.70406e-43 0)
(1.69872e-44 1.58282e-44 0)
(1.61183e-45 1.35459e-45 0)
(1.40351e-46 1.11278e-46 0)
(1.16874e-47 8.59545e-48 0)
(9.13376e-49 6.45885e-49 0)
(6.896e-50 5.22982e-50 0)
(5.31023e-51 4.6217e-51 0)
(4.27615e-52 5.28426e-52 0)
(4.16553e-53 6.08961e-53 0)
(4.29819e-54 7.49112e-54 0)
(5.01033e-55 8.29026e-55 0)
(2.56123e-55 8.3309e-56 0)
(3.82451e-54 -9.89182e-56 0)
(6.993e-53 -2.01463e-54 0)
(1.24694e-51 -3.68757e-53 0)
(2.16908e-50 -6.57025e-52 0)
(3.66475e-49 -1.1419e-50 0)
(6.03321e-48 -1.92756e-49 0)
(9.61366e-47 -3.17e-48 0)
(1.49115e-45 -5.04601e-47 0)
(2.22804e-44 -7.8168e-46 0)
(3.23876e-43 -1.16643e-44 0)
(4.50422e-42 -1.69229e-43 0)
(6.09765e-41 -2.34661e-42 0)
(7.81503e-40 -3.15417e-41 0)
(9.78001e-39 -3.96361e-40 0)
(1.13896e-37 -4.66283e-39 0)
(1.30637e-36 -4.37483e-38 0)
(1.35172e-35 -1.66271e-37 0)
(1.40569e-34 8.08547e-36 0)
(1.23267e-33 3.16286e-34 0)
(1.13179e-32 7.87665e-33 0)
(7.10367e-32 1.46695e-31 0)
(5.10023e-31 2.07535e-30 0)
(3.10604e-37 -1.4172e-36 0)
(-1.5388e-37 -2.09124e-37 0)
(-2.32971e-38 -1.96466e-38 0)
(-3.01553e-39 -3.60273e-40 0)
(-1.90738e-40 3.22577e-40 0)
(1.04251e-41 6.69668e-41 0)
(4.45661e-42 1.09172e-41 0)
(8.78561e-43 1.34266e-42 0)
(1.174e-43 1.53365e-43 0)
(1.4139e-44 1.5316e-44 0)
(1.462e-45 1.45133e-45 0)
(1.42153e-46 1.2625e-46 0)
(1.2607e-47 1.05046e-47 0)
(1.06493e-48 8.20744e-49 0)
(8.42133e-50 6.19842e-50 0)
(6.40501e-51 4.78219e-51 0)
(4.81641e-52 3.86177e-52 0)
(3.66895e-53 3.77304e-53 0)
(3.14908e-54 3.8983e-54 0)
(2.8917e-55 4.44728e-55 0)
(3.0185e-56 4.65336e-56 0)
(9.08001e-57 -1.41058e-56 0)
(1.13964e-55 -3.6646e-55 0)
(2.08202e-54 -6.88014e-54 0)
(3.71395e-53 -1.26001e-52 0)
(6.46346e-52 -2.24712e-51 0)
(1.09254e-50 -3.90959e-50 0)
(1.79959e-49 -6.60664e-49 0)
(2.86913e-48 -1.08786e-47 0)
(4.45311e-47 -1.73383e-46 0)
(6.65805e-46 -2.68992e-45 0)
(9.68609e-45 -4.0201e-44 0)
(1.34812e-43 -5.8443e-43 0)
(1.82687e-42 -8.12451e-42 0)
(2.34366e-41 -1.0974e-40 0)
(2.93682e-40 -1.39451e-39 0)
(3.42431e-39 -1.69585e-38 0)
(3.93478e-38 -1.7917e-37 0)
(4.07774e-37 -1.46439e-36 0)
(4.25204e-36 2.31384e-36 0)
(3.73654e-35 4.4097e-34 0)
(3.44635e-34 1.31198e-32 0)
(2.16999e-33 2.57468e-31 0)
(1.57362e-32 3.78386e-30 0)
(2.58983e-38 -1.41132e-37 0)
(-1.2736e-38 -2.12566e-38 0)
(-2.00942e-39 -2.70808e-39 0)
(-3.01703e-40 -1.67306e-40 0)
(-2.46386e-41 1.02112e-41 0)
(-5.50811e-43 4.10989e-42 0)
(2.07692e-43 8.00736e-43 0)
(5.52799e-44 1.06522e-43 0)
(8.13618e-45 1.27905e-44 0)
(1.03414e-45 1.32014e-45 0)
(1.10635e-46 1.28175e-46 0)
(1.1018e-47 1.13556e-47 0)
(9.94983e-49 9.58401e-49 0)
(8.52132e-50 7.57563e-50 0)
(6.816e-51 5.76128e-51 0)
(5.22574e-52 4.3362e-52 0)
(3.89764e-53 3.30849e-53 0)
(2.88984e-54 2.84637e-54 0)
(2.29607e-55 2.61851e-55 0)
(1.87496e-56 2.70531e-56 0)
(-8.74696e-57 2.40353e-57 0)
(-2.02726e-55 -6.27436e-57 0)
(-3.80389e-54 -1.25794e-55 0)
(-6.96542e-53 -2.3575e-54 0)
(-1.24205e-51 -4.31411e-53 0)
(-2.1606e-50 -7.68767e-52 0)
(-3.65048e-49 -1.33631e-50 0)
(-6.00981e-48 -2.25606e-49 0)
(-9.5765e-47 -3.71084e-48 0)
(-1.48541e-45 -5.90783e-47 0)
(-2.21949e-44 -9.1535e-46 0)
(-3.22639e-43 -1.36613e-44 0)
(-4.48708e-42 -1.9825e-43 0)
(-6.07456e-41 -2.74996e-42 0)
(-7.78554e-40 -3.69924e-41 0)
(-9.74333e-39 -4.65844e-40 0)
(-1.1347e-37 -5.51811e-39 0)
(-1.30153e-36 -5.31931e-38 0)
(-1.34672e-35 -2.58097e-37 0)
(-1.40058e-34 7.624e-36 0)
(-1.2282e-33 3.23229e-34 0)
(-1.12784e-32 8.20058e-33 0)
(-7.07923e-32 1.53638e-31 0)
(-5.08494e-31 2.18308e-30 0)
(2.23208e-39 -1.16819e-38 0)
(-1.0844e-39 -1.82796e-39 0)
(-1.74244e-40 -2.71116e-40 0)
(-2.95357e-41 -2.18728e-41 0)
(-2.79902e-42 -4.35879e-43 0)
(-1.7142e-43 1.94509e-43 0)
(2.25522e-45 5.0587e-44 0)
(2.87443e-45 7.40116e-45 0)
(5.09271e-46 9.37491e-46 0)
(7.04258e-47 1.00099e-46 0)
(7.89277e-48 9.9541e-48 0)
(8.10695e-49 8.97972e-49 0)
(7.48106e-50 7.68408e-50 0)
(6.51075e-51 6.14321e-51 0)
(5.27314e-52 4.70872e-52 0)
(4.07968e-53 3.51326e-53 0)
(3.03738e-54 2.60623e-54 0)
(2.21981e-55 2.07474e-55 0)
(1.67325e-56 1.83013e-56 0)
(9.15182e-58 1.85222e-57 0)
(-6.84289e-57 6.24602e-58 0)
(-1.33352e-55 8.38313e-57 0)
(-2.49833e-54 1.60738e-55 0)
(-4.57094e-53 3.01523e-54 0)
(-8.14366e-52 5.52491e-53 0)
(-1.41525e-50 9.85872e-52 0)
(-2.38876e-49 1.71635e-50 0)
(-3.92807e-48 2.90233e-49 0)
(-6.25188e-47 4.78278e-48 0)
(-9.68366e-46 7.6291e-47 0)
(-1.44488e-44 1.18478e-45 0)
(-2.0967e-43 1.77256e-44 0)
(-2.91092e-42 2.58074e-43 0)
(-3.93197e-41 3.59546e-42 0)
(-5.02857e-40 4.87976e-41 0)
(-6.27438e-39 6.27869e-40 0)
(-7.28685e-38 7.92329e-39 0)
(-8.32329e-37 9.41434e-38 0)
(-8.58053e-36 1.13394e-36 0)
(-8.86735e-35 1.32024e-35 0)
(-7.73569e-34 1.70116e-34 0)
(-7.02681e-33 2.16394e-33 0)
(-4.37495e-32 2.84813e-32 0)
(-3.06722e-31 2.90895e-31 0)
(-4.60708e-35 2.07757e-30 0)
(1.30933e-40 -1.22881e-39 0)
(-6.31598e-41 -1.96604e-40 0)
(-1.03702e-41 -3.35005e-41 0)
(-1.85933e-42 -3.2144e-42 0)
(-1.87881e-43 -2.07927e-43 0)
(-1.41441e-44 3.46438e-46 0)
(-3.68441e-46 2.93198e-45 0)
(1.1056e-46 5.39135e-46 0)
(2.42142e-47 7.56144e-47 0)
(3.60507e-48 8.53644e-48 0)
(4.19209e-49 8.8082e-49 0)
(4.40643e-50 8.15403e-50 0)
(4.13147e-51 7.11261e-51 0)
(3.63726e-52 5.77125e-52 0)
(2.97244e-53 4.46874e-53 0)
(2.3154e-54 3.3148e-54 0)
(1.73367e-55 2.22159e-55 0)
(1.45621e-56 1.7757e-56 0)
(1.15508e-57 1.96886e-56 0)
(-8.89841e-58 4.18715e-57 0)
(-1.4909e-57 1.24846e-57 0)
(-2.48345e-56 6.19323e-57 0)
(-4.63182e-55 1.16248e-55 0)
(-8.44918e-54 2.17783e-54 0)
(-1.50058e-52 3.98548e-53 0)
(-2.59824e-51 7.10249e-52 0)
(-4.36848e-50 1.23469e-50 0)
(-7.15054e-49 2.08472e-49 0)
(-1.13258e-47 3.42949e-48 0)
(-1.74401e-46 5.46081e-47 0)
(-2.5863e-45 8.4628e-46 0)
(-3.72448e-44 1.26347e-44 0)
(-5.13011e-43 1.83473e-43 0)
(-6.85891e-42 2.54929e-42 0)
(-8.68037e-41 3.44692e-41 0)
(-1.06771e-39 4.41399e-40 0)
(-1.22227e-38 5.51838e-39 0)
(-1.36702e-37 6.43204e-38 0)
(-1.38027e-36 7.40084e-37 0)
(-1.37952e-35 7.75908e-36 0)
(-1.16558e-34 8.28257e-35 0)
(-9.9779e-34 7.72985e-34 0)
(-5.88609e-33 7.60653e-33 0)
(-3.59069e-32 5.41948e-32 0)
(-5.61505e-36 3.69206e-31 0)
(-5.09387e-40 -3.12603e-39 0)
(2.4483e-40 -4.98893e-40 0)
(4.04231e-41 -8.43046e-41 0)
(7.42933e-42 -8.01758e-42 0)
(7.70879e-43 -5.0283e-43 0)
(6.2749e-44 3.86471e-45 0)
(2.46459e-45 7.77937e-45 0)
(-2.99278e-46 1.39977e-45 0)
(-8.02479e-47 1.94686e-46 0)
(-1.26059e-47 2.18799e-47 0)
(-1.50092e-48 2.25123e-48 0)
(-1.60023e-49 2.07976e-49 0)
(-1.51422e-50 1.81149e-50 0)
(-1.34196e-51 1.46792e-51 0)
(-1.10208e-52 1.13049e-52 0)
(-8.60552e-54 8.12743e-54 0)
(-6.25744e-55 1.76482e-55 0)
(-2.9706e-57 3.61266e-56 0)
(1.65599e-57 3.88521e-55 0)
(-1.95724e-56 8.53366e-56 0)
(-4.61407e-57 1.96123e-56 0)
(-5.58372e-57 4.06789e-57 0)
(-8.55709e-56 2.22619e-56 0)
(-1.5585e-54 4.08268e-55 0)
(-2.76756e-53 7.44794e-54 0)
(-4.78963e-52 1.32302e-52 0)
(-8.04581e-51 2.29132e-51 0)
(-1.31514e-49 3.85345e-50 0)
(-2.07906e-48 6.30942e-49 0)
(-3.19308e-47 9.99696e-48 0)
(-4.71937e-46 1.54001e-46 0)
(-6.76679e-45 2.28483e-45 0)
(-9.26994e-44 3.2921e-44 0)
(-1.23087e-42 4.5374e-43 0)
(-1.54425e-41 6.07099e-42 0)
(-1.87891e-40 7.69044e-41 0)
(-2.12072e-39 9.47121e-40 0)
(-2.33058e-38 1.08636e-38 0)
(-2.29721e-37 1.2191e-37 0)
(-2.23034e-36 1.23957e-36 0)
(-1.80527e-35 1.25488e-35 0)
(-1.47782e-34 1.08892e-34 0)
(-8.08778e-34 9.64126e-34 0)
(-4.74518e-33 6.03802e-33 0)
(-6.84657e-37 3.67988e-32 0)
(-6.83806e-39 -3.60147e-38 0)
(3.31931e-39 -5.64736e-39 0)
(5.34465e-40 -8.50029e-40 0)
(9.11799e-41 -7.02169e-41 0)
(8.71919e-42 -1.88809e-42 0)
(5.52874e-43 5.25941e-43 0)
(-3.12037e-45 1.4634e-43 0)
(-8.3168e-45 2.17641e-44 0)